      -----------------------------------------------------------      
     |                   =====================                   |     
     |                           x T B                           |     
     |                   =====================                   |     
     |                         S. Grimme                         |     
     |          Mulliken Center for Theoretical Chemistry        |     
     |                    University of Bonn                     |     
      -----------------------------------------------------------      

   * xtb version 6.5.1 (b24c23e) compiled by 'conda@728c89f4b128' on 2022-07-12

   xtb is free software: you can redistribute it and/or modify it under
   the terms of the GNU Lesser General Public License as published by
   the Free Software Foundation, either version 3 of the License, or
   (at your option) any later version.
   
   xtb is distributed in the hope that it will be useful,
   but WITHOUT ANY WARRANTY; without even the implied warranty of
   MERCHANTABILITY or FITNESS FOR A PARTICULAR PURPOSE.  See the
   GNU Lesser General Public License for more details.
   
   Cite this work as:
   * C. Bannwarth, E. Caldeweyher, S. Ehlert, A. Hansen, P. Pracht,
     J. Seibert, S. Spicher, S. Grimme, WIREs Comput. Mol. Sci., 2020, 11,
     e01493. DOI: 10.1002/wcms.1493
   
   for GFN2-xTB:
   * C. Bannwarth, S. Ehlert and S. Grimme., J. Chem. Theory Comput., 2019,
     15, 1652-1671. DOI: 10.1021/acs.jctc.8b01176
   for GFN1-xTB:
   * S. Grimme, C. Bannwarth, P. Shushkov, J. Chem. Theory Comput., 2017,
     13, 1989-2009. DOI: 10.1021/acs.jctc.7b00118
   for GFN0-xTB:
   * P. Pracht, E. Caldeweyher, S. Ehlert, S. Grimme, ChemRxiv, 2019, preprint.
     DOI: 10.26434/chemrxiv.8326202.v1
   for GFN-FF:
   * S. Spicher and S. Grimme, Angew. Chem. Int. Ed., 2020, 59, 15665-15673.
     DOI: 10.1002/anie.202004239
   
   for ALPB and GBSA implicit solvation:
   * S. Ehlert, M. Stahn, S. Spicher, S. Grimme, J. Chem. Theory Comput.,
     2021, 17, 4250-4261. DOI: 10.1021/acs.jctc.1c00471
   
   for DFT-D4:
   * E. Caldeweyher, C. Bannwarth and S. Grimme, J. Chem. Phys., 2017,
     147, 034112. DOI: 10.1063/1.4993215
   * E. Caldeweyher, S. Ehlert, A. Hansen, H. Neugebauer, S. Spicher,
     C. Bannwarth and S. Grimme, J. Chem. Phys., 2019, 150, 154122.
     DOI: 10.1063/1.5090222
   * E. Caldeweyher, J.-M. Mewes, S. Ehlert and S. Grimme, Phys. Chem. Chem. Phys.
     2020, 22, 8499-8512. DOI: 10.1039/D0CP00502A
   
   for sTDA-xTB:
   * S. Grimme and C. Bannwarth, J. Chem. Phys., 2016, 145, 054103.
     DOI: 10.1063/1.4959605
   
   in the mass-spec context:
   * V. Asgeirsson, C. Bauer and S. Grimme, Chem. Sci., 2017, 8, 4879.
     DOI: 10.1039/c7sc00601b
   * J. Koopman and S. Grimme, ACS Omega 2019, 4, 12, 15120-15133.
     DOI: 10.1021/acsomega.9b02011
   
   for metadynamics refer to:
   * S. Grimme, J. Chem. Theory Comput., 2019, 155, 2847-2862
     DOI: 10.1021/acs.jctc.9b00143
   
   for SPH calculations refer to:
   * S. Spicher and S. Grimme, J. Chem. Theory Comput., 2021, 17, 1701-1714
     DOI: 10.1021/acs.jctc.0c01306
   
   with help from (in alphabetical order)
   P. Atkinson, C. Bannwarth, F. Bohle, G. Brandenburg, E. Caldeweyher
   M. Checinski, S. Dohm, S. Ehlert, S. Ehrlich, I. Gerasimov, C. Hölzer
   A. Katbashev, J. Koopman, C. Lavigne, S. Lehtola, F. März, M. Müller,
   F. Musil, H. Neugebauer, J. Pisarek, C. Plett, P. Pracht, F. Pultar,
   J. Seibert, P. Shushkov, S. Spicher, M. Stahn, M. Steiner, T. Strunk,
   J. Stückrath, T. Rose, and J. Unsleber
   
 * started run on 2022/07/30 at 07:21:20.458     

           -------------------------------------------------
          |                Calculation Setup                |
           -------------------------------------------------

          program call               : xtb Cu_Ph2Me_C6_3.xyz --gfn 1 --opt -T 48
          hostname                   : cx3-15-15.cx3.hpc.ic.ac.uk
          coordinate file            : Cu_Ph2Me_C6_3.xyz
          omp threads                :                     1

   ID    Z sym.   atoms
    1   29 Cu     1, 69, 149
    2    6 C      2-6, 8-11, 13-31, 34-41, 70-74, 76-79, 81-99, 102-109,
                  137-148, 150-154, 156-159, 161-179, 182-189
    3    7 N      7, 12, 32, 33, 75, 80, 100, 101, 155, 160, 180, 181
    4    1 H      42-68, 110-136, 190-215

molecular fragmentation (1/2 indicates fragments):
111111111111111111111111111111111111111111111111111111111111111111112222
222222222222222222222222222222222222222222222222222222222222222222222222
22222222222222222222222222222222222222222222222222222222222222222222222
# atoms in fragment 1/2:    68   147
 fragment masses (1/2) :      579.17     1301.47
CMA distance (Bohr)    :  45.493
constraining FC (au)   :  0.0500
########################################################################
[WARNING] Please study the warnings concerning your input carefully
-1- prog_main_parseArguments: Unknown option '-T' provided
########################################################################

           -------------------------------------------------
          |                 G F N 1 - x T B                 |
           -------------------------------------------------

        Reference                      10.1021/acs.jctc.7b00118
      * Hamiltonian:
        H0-scaling (s, p, d)           1.850000    2.250000    2.000000
        zeta-weighting                 0.000000
      * Dispersion:
        s8                             2.400000
        a1                             0.630000
        a2                             5.000000
        s9                             0.000000
      * Repulsion:
        kExp                           1.500000
        rExp                           1.000000
      * Coulomb:
        alpha                          2.000000
        third order                    atomic
        anisotropic                    false
      * Halogen bond correction:
        rad-scale                      1.300000
        damping                        0.440000


          ...................................................
          :                      SETUP                      :
          :.................................................:
          :  # basis functions                 718          :
          :  # atomic orbitals                 715          :
          :  # shells                          433          :
          :  # electrons                       653          :
          :  # halogen bonds                     0          :
          :  max. iterations                   250          :
          :  Hamiltonian                  GFN1-xTB          :
          :  restarted?                      false          :
          :  GBSA solvation                  false          :
          :  PC potential                    false          :
          :  electronic temp.          300.0000000     K    :
          :  accuracy                    1.0000000          :
          :  -> integral cutoff          0.2500000E+02      :
          :  -> integral neglect         0.1000000E-07      :
          :  -> SCF convergence          0.1000000E-05 Eh   :
          :  -> wf. convergence          0.2000000E-04 e    :
          :  Broyden damping             0.4000000          :
          ...................................................

 iter      E             dE          RMSdq      gap      omega  full diag
   1   -353.2272002 -0.353227E+03  0.103E+01    0.00       0.0  T
   2   -353.3999484 -0.172748E+00  0.622E+00    0.12       1.0  T
   3   -327.3716141  0.260283E+02  0.643E+00    0.14       1.0  T
   4   -344.0963004 -0.167247E+02  0.331E+00    0.03       1.0  T
   5   -344.0096326  0.866677E-01  0.209E+00    0.35       1.0  T
   6   -343.6047460  0.404887E+00  0.201E+00    0.17       1.0  T
   7   -352.8282769 -0.922353E+01  0.114E+00    0.27       1.0  T
   8   -353.3242560 -0.495979E+00  0.690E-01    0.15       1.0  T
   9   -353.4838355 -0.159580E+00  0.519E-01    0.10       1.0  T
  10   -353.5011788 -0.173432E-01  0.405E-01    0.01       1.0  T
  11   -353.4173762  0.838025E-01  0.521E-01    0.15       1.0  T
  12   -353.4256204 -0.824419E-02  0.550E-01    0.07       1.0  T
  13   -353.4955694 -0.699490E-01  0.407E-01    0.01       1.0  T
  14   -353.5693003 -0.737309E-01  0.178E-01    0.00       1.0  T
  15   -353.5303506  0.389497E-01  0.289E-01    0.06       1.0  T
  16   -353.5589657 -0.286152E-01  0.239E-01    0.03       1.0  T
  17   -353.5484015  0.105643E-01  0.275E-01    0.03       1.0  T
  18   -353.5545740 -0.617258E-02  0.246E-01    0.03       1.0  T
  19   -353.5644327 -0.985870E-02  0.187E-01    0.02       1.0  T
  20   -353.5688032 -0.437051E-02  0.148E-01    0.01       1.0  T
  21   -353.5731139 -0.431063E-02  0.108E-01    0.00       1.0  T
  22   -353.5715779  0.153602E-02  0.120E-01    0.00       1.0  T
  23   -353.5770574 -0.547952E-02  0.523E-02    0.01       1.0  T
  24   -353.5776997 -0.642348E-03  0.378E-02    0.01       1.0  T
  25   -353.5782758 -0.576031E-03  0.162E-02    0.00       1.0  T
  26   -353.5784057 -0.129972E-03  0.516E-03    0.00       1.3  T
  27   -353.5784000  0.575019E-05  0.602E-03    0.00       1.1  T
  28   -353.5784104 -0.104139E-04  0.357E-03    0.00       1.9  T
  29   -353.5784162 -0.580128E-05  0.954E-04    0.00       7.2  T
  30   -353.5784162  0.356331E-07  0.935E-04    0.00       7.3  T
  31   -353.5784165 -0.379028E-06  0.293E-04    0.00      23.3  T
  32   -353.5784166 -0.442367E-07  0.432E-05    0.00     157.8  T
  33   -353.5784166 -0.608566E-09  0.394E-05    0.00     173.0  T

   *** convergence criteria satisfied after 33 iterations ***

         #    Occupation            Energy/Eh            Energy/eV
      -------------------------------------------------------------
         1        2.0000           -0.7702957             -20.9608
       ...           ...                  ...                  ...
       321        2.0000           -0.3941317             -10.7249
       322        2.0000           -0.3919907             -10.6666
       323        2.0000           -0.3841909             -10.4544
       324        2.0000           -0.3838119             -10.4441
       325        2.0000           -0.3696167             -10.0578
       326        1.0147           -0.3466861              -9.4338
       327        1.0024           -0.3466597              -9.4331 (HOMO)
       328        0.9828           -0.3466178              -9.4320 (LUMO)
       329        0.0000           -0.3362938              -9.1510
       330                         -0.3275203              -8.9123
       331                         -0.3266889              -8.8897
       332                         -0.3237042              -8.8084
       ...                                ...                  ...
       715                          3.1775012              86.4642
      -------------------------------------------------------------
                  HL-Gap            0.0000419 Eh            0.0011 eV
             Fermi-level           -0.3466546 Eh           -9.4330 eV

 SCC (total)                   0 d,  0 h,  0 min,  6.065 sec
 SCC setup                      ...        0 min,  0.014 sec (  0.227%)
 Dispersion                     ...        0 min,  0.009 sec (  0.143%)
 classical contributions        ...        0 min,  0.003 sec (  0.047%)
 integral evaluation            ...        0 min,  0.241 sec (  3.974%)
 iterations                     ...        0 min,  5.198 sec ( 85.706%)
 molecular gradient             ...        0 min,  0.568 sec (  9.363%)
 printout                       ...        0 min,  0.033 sec (  0.540%)

         :::::::::::::::::::::::::::::::::::::::::::::::::::::
         ::                     SUMMARY                     ::
         :::::::::::::::::::::::::::::::::::::::::::::::::::::
         :: total energy            -347.548248635713 Eh    ::
         :: gradient norm              1.750382784140 Eh/a0 ::
         :: HOMO-LUMO gap              0.001140166799 eV    ::
         ::.................................................::
         :: SCC energy              -353.578416585159 Eh    ::
         :: -> electrostatic           0.180778852601 Eh    ::
         :: repulsion energy           6.211311075688 Eh    ::
         :: dispersion energy         -0.181143126242 Eh    ::
         :: halogen bond corr.         0.000000000000 Eh    ::
         :: add. restraining           0.000000000000 Eh    ::
         :: total charge               0.000000000001 e     ::
         :::::::::::::::::::::::::::::::::::::::::::::::::::::

      ----------------------------------------------------------- 
     |                   =====================                   |
     |                        A N C O P T                        |
     |                   =====================                   |
     |               Approximate Normal Coordinate               |
     |                Rational Function Optimizer                |
      ----------------------------------------------------------- 

          ...................................................
          :                      SETUP                      :
          :.................................................:
          :   optimization level            normal          :
          :   max. optcycles                   645          :
          :   ANC micro-cycles                  20          :
          :   degrees of freedom               639          :
          :.................................................:
          :   RF solver                   davidson          :
          :   write xtbopt.log                true          :
          :   linear?                        false          :
          :   energy convergence         0.5000000E-05 Eh   :
          :   grad. convergence          0.1000000E-02 Eh/α :
          :   maximium RF displ.         1.0000000          :
          :   Hlow (freq-cutoff)         0.1000000E-01      :
          :   Hmax (freq-cutoff)         5.0000000          :
          :   S6 in model hess.         20.0000000          :
          ...................................................

generating ANC from model Hessian ...
Using Lindh-Hessian (1995)
 Shifting diagonal of input Hessian by    1.0031508210470129E-002
 Lowest  eigenvalues of input Hessian
    0.010000    0.010016    0.010021    0.010022    0.010024    0.010026
    0.010028    0.000000    0.000000    0.000000    0.000000    0.000000
    0.000000    0.010032    0.010042    0.010045    0.010114    0.010132
 Highest eigenvalues
    2.409198    2.499608    2.697908    2.708043    3.700350    3.868686


........................................................................
.............................. CYCLE    1 ..............................
........................................................................
   1   -353.5784166 -0.353578E+03  0.179E-05    0.00       0.0  T
   2   -353.5784165  0.127829E-06  0.479E-04    0.00      14.2  T
   3   -353.5784166 -0.123662E-06  0.880E-05    0.00      77.5  T
   4   -353.5784166 -0.115062E-08  0.758E-05    0.00      90.0  T
     SCC iter.                  ...        0 min,  0.638 sec
     gradient                   ...        0 min,  0.569 sec
 * total energy  :  -347.5482486 Eh     change        0.2449724E-08 Eh
   gradient norm :     1.7503826 Eh/α   predicted     0.0000000E+00 (-100.00%)
   displ. norm   :     0.5290276 α      lambda       -0.8406138E+00
   maximum displ.:     0.2517153 α      in ANC's #639, #638, #544, ...

........................................................................
.............................. CYCLE    2 ..............................
........................................................................
   1   -353.6446262 -0.353645E+03  0.183E-01    0.00       0.0  T
   2   -353.5793900  0.652362E-01  0.365E-01    0.03       1.0  T
   3   -353.4607429  0.118647E+00  0.599E-01    0.37       1.0  T
   4   -353.5306585 -0.699157E-01  0.467E-01    0.05       1.0  T
   5   -353.6108973 -0.802388E-01  0.284E-01    0.02       1.0  T
   6   -353.6327083 -0.218110E-01  0.197E-01    0.00       1.0  T
   7   -353.6524182 -0.197099E-01  0.521E-02    0.01       1.0  T
   8   -353.6537394 -0.132114E-02  0.177E-02    0.00       1.0  T
   9   -353.6537408 -0.140541E-05  0.176E-02    0.00       1.0  T
  10   -353.6538777 -0.136959E-03  0.854E-03    0.00       1.0  T
  11   -353.6539146 -0.368794E-04  0.226E-03    0.00       3.0  T
  12   -353.6539162 -0.157223E-05  0.151E-03    0.00       4.5  T
  13   -353.6539173 -0.108393E-05  0.506E-04    0.00      13.5  T
  14   -353.6539173 -0.680874E-07  0.368E-04    0.00      18.5  T
  15   -353.6539174 -0.618114E-07  0.140E-04    0.00      48.8  T
  16   -353.6539174 -0.780778E-08  0.720E-05    0.00      94.7  T
     SCC iter.                  ...        0 min,  2.532 sec
     gradient                   ...        0 min,  0.571 sec
 * total energy  :  -348.0038707 Eh     change       -0.4556220E+00 Eh
   gradient norm :     0.4313017 Eh/α   predicted    -0.5379523E+00 (  18.07%)
   displ. norm   :     1.9873460 α      lambda        0.7403695E-01
   maximum displ.:     1.0000000 α      in ANC's #192, #287, #292, ...

........................................................................
.............................. CYCLE    3 ..............................
........................................................................
   1   -353.1417426 -0.353142E+03  0.503E-01    0.27       0.0  T
   2   -350.2940857  0.284766E+01  0.148E+00    0.06       1.0  T
   3   -353.0561199 -0.276203E+01  0.509E-01    0.46       1.0  T
   4   -353.0647491 -0.862922E-02  0.511E-01    0.17       1.0  T
   5   -353.1317136 -0.669646E-01  0.370E-01    0.18       1.0  T
   6   -353.1593305 -0.276168E-01  0.546E-01    0.07       1.0  T
   7   -353.2050650 -0.457345E-01  0.422E-01    0.04       1.0  T
   8   -353.2375888 -0.325238E-01  0.288E-01    0.02       1.0  T
   9   -353.2196926  0.178962E-01  0.294E-01    0.04       1.0  T
  10   -353.2469856 -0.272930E-01  0.181E-01    0.01       1.0  T
  11   -353.2386114  0.837419E-02  0.210E-01    0.01       1.0  T
  12   -353.2612105 -0.225990E-01  0.394E-02    0.00       1.0  T
  13   -353.2593929  0.181754E-02  0.726E-02    0.00       1.0  T
  14   -353.2612221 -0.182919E-02  0.463E-02    0.01       1.0  T
  15   -353.2620954 -0.873344E-03  0.203E-02    0.00       1.0  T
  16   -353.2622981 -0.202603E-03  0.480E-03    0.01       1.4  T
  17   -353.2623072 -0.912024E-05  0.303E-03    0.01       2.2  T
  18   -353.2623090 -0.181306E-05  0.226E-03    0.01       3.0  T
  19   -353.2623102 -0.117503E-05  0.152E-03    0.01       4.5  T
  20   -353.2623114 -0.123349E-05  0.218E-04    0.01      31.3  T
  21   -353.2623114  0.424029E-07  0.345E-04    0.01      19.7  T
  22   -353.2623114 -0.428201E-07  0.210E-04    0.01      32.4  T
  23   -353.2623114 -0.222165E-07  0.239E-05    0.01     285.4  T
  24   -353.2623114 -0.281432E-09  0.578E-06    0.01    1179.7  T
     SCC iter.                  ...        0 min,  3.780 sec
     gradient                   ...        0 min,  0.567 sec
 * total energy  :  -347.9860257 Eh     change        0.1784493E-01 Eh
   gradient norm :     0.4848322 Eh/α   predicted     0.1861902E+00 ( 943.38%)
   displ. norm   :     0.6463003 α      lambda       -0.2125719E+00
   maximum displ.:     0.1968323 α      in ANC's #292, #189, #192, ...

........................................................................
.............................. CYCLE    4 ..............................
........................................................................
   1   -353.4407996 -0.353441E+03  0.218E-01    0.00       0.0  T
   2   -353.2305745  0.210225E+00  0.640E-01    0.78       1.0  T
   3   -353.3643618 -0.133787E+00  0.429E-01    0.05       1.0  T
   4   -353.3605210  0.384083E-02  0.429E-01    0.00       1.0  T
   5   -353.4000119 -0.394909E-01  0.349E-01    0.01       1.0  T
   6   -353.4616599 -0.616480E-01  0.527E-02    0.01       1.0  T
   7   -353.4482046  0.134552E-01  0.167E-01    0.00       1.0  T
   8   -353.4607733 -0.125687E-01  0.663E-02    0.02       1.0  T
   9   -353.4630042 -0.223090E-02  0.156E-02    0.01       1.0  T
  10   -353.4631303 -0.126058E-03  0.166E-03    0.00       4.1  T
  11   -353.4631302  0.490951E-07  0.169E-03    0.00       4.0  T
  12   -353.4631305 -0.300048E-06  0.153E-03    0.00       4.4  T
  13   -353.4631317 -0.116347E-05  0.419E-04    0.00      16.3  T
  14   -353.4631316  0.557687E-07  0.533E-04    0.00      12.8  T
  15   -353.4631318 -0.150037E-06  0.720E-05    0.00      94.7  T
  16   -353.4631318  0.672969E-09  0.775E-05    0.00      87.9  T
     SCC iter.                  ...        0 min,  2.532 sec
     gradient                   ...        0 min,  0.569 sec
 * total energy  :  -348.1502340 Eh     change       -0.1642082E+00 Eh
   gradient norm :     0.2405939 Eh/α   predicted    -0.1506823E+00 (  -8.24%)
   displ. norm   :     0.7480183 α      lambda       -0.1411728E+00
   maximum displ.:     0.2078538 α      in ANC's #120, #292, #189, ...

........................................................................
.............................. CYCLE    5 ..............................
........................................................................
   1   -353.6227449 -0.353623E+03  0.226E-01    0.00       0.0  T
   2   -353.3115024  0.311242E+00  0.721E-01    0.80       1.0  T
   3   -353.5799890 -0.268487E+00  0.352E-01    0.01       1.0  T
   4   -353.5077492  0.722398E-01  0.491E-01    0.06       1.0  T
   5   -353.6454906 -0.137741E+00  0.580E-02    0.01       1.0  T
   6   -353.6146786  0.308120E-01  0.249E-01    0.01       1.0  T
   7   -353.6441093 -0.294307E-01  0.761E-02    0.01       1.0  T
   8   -353.6460034 -0.189415E-02  0.460E-02    0.01       1.0  T
   9   -353.6469785 -0.975081E-03  0.164E-02    0.01       1.0  T
  10   -353.6470692 -0.906688E-04  0.115E-02    0.01       1.0  T
  11   -353.6471321 -0.629211E-04  0.307E-03    0.00       2.2  T
  12   -353.6471370 -0.484838E-05  0.101E-03    0.00       6.8  T
  13   -353.6471372 -0.280958E-06  0.645E-04    0.00      10.6  T
  14   -353.6471371  0.140277E-06  0.842E-04    0.00       8.1  T
  15   -353.6471375 -0.344235E-06  0.235E-04    0.00      29.0  T
  16   -353.6471375 -0.316620E-07  0.168E-05    0.00     405.0  T
  17   -353.6471375  0.102693E-08  0.456E-05    0.00     149.6  T
     SCC iter.                  ...        0 min,  2.696 sec
     gradient                   ...        0 min,  0.568 sec
 * total energy  :  -348.2622333 Eh     change       -0.1119993E+00 Eh
   gradient norm :     0.1267535 Eh/α   predicted    -0.1100818E+00 (  -1.71%)
   displ. norm   :     0.8019249 α      lambda       -0.8516893E-01
   maximum displ.:     0.3008341 α      in ANC's #120, #121, #119, ...

........................................................................
.............................. CYCLE    6 ..............................
........................................................................
   1   -353.6994885 -0.353699E+03  0.191E-01    0.00       0.0  T
   2   -353.4734359  0.226053E+00  0.653E-01    0.77       1.0  T
   3   -353.6214716 -0.148036E+00  0.433E-01    0.12       1.0  T
   4   -353.6593372 -0.378655E-01  0.325E-01    0.01       1.0  T
   5   -353.6982289 -0.388917E-01  0.191E-01    0.01       1.0  T
   6   -353.6673562  0.308727E-01  0.310E-01    0.01       1.0  T
   7   -353.6676973 -0.341119E-03  0.306E-01    0.07       1.0  T
   8   -353.6986658 -0.309685E-01  0.193E-01    0.00       1.0  T
   9   -353.7169548 -0.182890E-01  0.535E-02    0.01       1.0  T
  10   -353.7180599 -0.110505E-02  0.305E-02    0.00       1.0  T
  11   -353.7183416 -0.281692E-03  0.196E-02    0.01       1.0  T
  12   -353.7185476 -0.206064E-03  0.245E-03    0.01       2.8  T
  13   -353.7185461  0.150778E-05  0.299E-03    0.01       2.3  T
  14   -353.7185500 -0.389143E-05  0.133E-03    0.00       5.1  T
  15   -353.7185509 -0.864196E-06  0.425E-04    0.00      16.1  T
  16   -353.7185510 -0.915559E-07  0.962E-05    0.00      70.9  T
  17   -353.7185510  0.657076E-08  0.147E-04    0.00      46.5  T
     SCC iter.                  ...        0 min,  2.693 sec
     gradient                   ...        0 min,  0.570 sec
 * total energy  :  -348.3294214 Eh     change       -0.6718811E-01 Eh
   gradient norm :     0.0821393 Eh/α   predicted    -0.6996995E-01 (   4.14%)
   displ. norm   :     0.7561093 α      lambda       -0.4723979E-01
   maximum displ.:     0.3026142 α      in ANC's #120, #121, #52, ...

........................................................................
.............................. CYCLE    7 ..............................
........................................................................
   1   -353.7310899 -0.353731E+03  0.240E-01    0.00       0.0  T
   2   -353.1507929  0.580297E+00  0.906E-01    0.61       1.0  T
   3   -353.7011131 -0.550320E+00  0.378E-01    0.06       1.0  T
   4   -353.6438424  0.572707E-01  0.466E-01    0.01       1.0  T
   5   -353.7005283 -0.566859E-01  0.352E-01    0.07       1.0  T
   6   -353.7629986 -0.624703E-01  0.464E-02    0.00       1.0  T
   7   -353.7614771  0.152148E-02  0.710E-02    0.00       1.0  T
   8   -353.7635812 -0.210411E-02  0.231E-02    0.00       1.0  T
   9   -353.7637817 -0.200417E-03  0.931E-03    0.00       1.0  T
  10   -353.7635436  0.238044E-03  0.236E-02    0.00       1.0  T
  11   -353.7638126 -0.268959E-03  0.354E-03    0.00       1.9  T
  12   -353.7638060  0.655804E-05  0.492E-03    0.00       1.4  T
  13   -353.7638180 -0.119521E-04  0.336E-04    0.01      20.3  T
  14   -353.7638179  0.912516E-07  0.487E-04    0.01      14.0  T
  15   -353.7638180 -0.129945E-06  0.104E-04    0.01      65.4  T
  16   -353.7638180  0.116566E-07  0.172E-04    0.01      39.6  T
     SCC iter.                  ...        0 min,  2.536 sec
     gradient                   ...        0 min,  0.567 sec
 * total energy  :  -348.3665654 Eh     change       -0.3714402E-01 Eh
   gradient norm :     0.0661586 Eh/α   predicted    -0.3712344E-01 (  -0.06%)
   displ. norm   :     0.7289008 α      lambda       -0.3127156E-01
   maximum displ.:     0.2709853 α      in ANC's #52, #120, #121, ...

........................................................................
.............................. CYCLE    8 ..............................
........................................................................
   1   -353.7701996 -0.353770E+03  0.283E-01    0.00       0.0  T
   2   -353.1325310  0.637669E+00  0.967E-01    0.49       1.0  T
   3   -353.7422577 -0.609727E+00  0.410E-01    0.08       1.0  T
   4   -353.6977782  0.444795E-01  0.462E-01    0.02       1.0  T
   5   -353.7488093 -0.510311E-01  0.359E-01    0.08       1.0  T
   6   -353.8125361 -0.637268E-01  0.503E-02    0.01       1.0  T
   7   -353.8070801  0.545594E-02  0.116E-01    0.00       1.0  T
   8   -353.8105958 -0.351566E-02  0.792E-02    0.02       1.0  T
   9   -353.8138288 -0.323297E-02  0.106E-02    0.00       1.0  T
  10   -353.8136944  0.134416E-03  0.193E-02    0.00       1.0  T
  11   -353.8138686 -0.174217E-03  0.496E-03    0.00       1.4  T
  12   -353.8138725 -0.390168E-05  0.397E-03    0.00       1.7  T
  13   -353.8138777 -0.523154E-05  0.217E-03    0.00       3.1  T
  14   -353.8138797 -0.202326E-05  0.733E-04    0.00       9.3  T
  15   -353.8138800 -0.255266E-06  0.241E-04    0.00      28.2  T
  16   -353.8138800 -0.174331E-07  0.166E-04    0.00      41.0  T
  17   -353.8138800 -0.128686E-07  0.663E-05    0.00     102.9  T
     SCC iter.                  ...        0 min,  2.697 sec
     gradient                   ...        0 min,  0.572 sec
 * total energy  :  -348.3901488 Eh     change       -0.2358341E-01 Eh
   gradient norm :     0.0431297 Eh/α   predicted    -0.2394302E-01 (   1.52%)
   displ. norm   :     0.8005653 α      lambda       -0.2116802E-01
   maximum displ.:     0.3680294 α      in ANC's #52, #32, #120, ...

........................................................................
.............................. CYCLE    9 ..............................
........................................................................
   1   -353.8100405 -0.353810E+03  0.242E-01    0.00       0.0  T
   2   -353.2289175  0.581123E+00  0.908E-01    0.60       1.0  T
   3   -353.8008623 -0.571945E+00  0.296E-01    0.01       1.0  T
   4   -353.6996360  0.101226E+00  0.502E-01    0.04       1.0  T
   5   -353.7969419 -0.973059E-01  0.299E-01    0.06       1.0  T
   6   -353.8380888 -0.411469E-01  0.776E-02    0.01       1.0  T
   7   -353.8386226 -0.533809E-03  0.721E-02    0.00       1.0  T
   8   -353.8406721 -0.204956E-02  0.318E-02    0.01       1.0  T
   9   -353.8410821 -0.409978E-03  0.148E-02    0.01       1.0  T
  10   -353.8411267 -0.445864E-04  0.120E-02    0.00       1.0  T
  11   -353.8411960 -0.693202E-04  0.219E-03    0.00       3.1  T
  12   -353.8411983 -0.232621E-05  0.258E-04    0.00      26.4  T
  13   -353.8411973  0.101449E-05  0.146E-03    0.00       4.7  T
  14   -353.8411983 -0.100825E-05  0.269E-04    0.00      25.3  T
  15   -353.8411984 -0.204407E-07  0.151E-04    0.00      45.2  T
  16   -353.8411984 -0.127018E-07  0.132E-05    0.00     515.7  T
     SCC iter.                  ...        0 min,  2.536 sec
     gradient                   ...        0 min,  0.571 sec
 * total energy  :  -348.4034804 Eh     change       -0.1333158E-01 Eh
   gradient norm :     0.0345776 Eh/α   predicted    -0.1736735E-01 (  30.27%)
   displ. norm   :     0.7924367 α      lambda       -0.1738631E-01
   maximum displ.:     0.3789371 α      in ANC's #52, #32, #25, ...

........................................................................
.............................. CYCLE   10 ..............................
........................................................................
   1   -353.8513276 -0.353851E+03  0.220E-01    0.00       0.0  T
   2   -353.3229625  0.528365E+00  0.867E-01    0.66       1.0  T
   3   -353.8715548 -0.548592E+00  0.130E-01    0.02       1.0  T
   4   -353.8376355  0.339193E-01  0.278E-01    0.03       1.0  T
   5   -353.8465423 -0.890677E-02  0.246E-01    0.04       1.0  T
   6   -353.8756280 -0.290857E-01  0.449E-02    0.01       1.0  T
   7   -353.8762932 -0.665163E-03  0.258E-02    0.00       1.0  T
   8   -353.8763900 -0.968120E-04  0.211E-02    0.01       1.0  T
   9   -353.8765879 -0.197895E-03  0.759E-03    0.00       1.0  T
  10   -353.8766094 -0.214725E-04  0.412E-03    0.00       1.7  T
  11   -353.8766176 -0.819577E-05  0.549E-04    0.00      12.4  T
  12   -353.8766175  0.306159E-07  0.621E-04    0.00      11.0  T
  13   -353.8766177 -0.170514E-06  0.222E-04    0.00      30.7  T
  14   -353.8766177 -0.177735E-07  0.117E-04    0.00      58.2  T
  15   -353.8766177 -0.682036E-08  0.142E-05    0.00     480.6  T
     SCC iter.                  ...        0 min,  2.372 sec
     gradient                   ...        0 min,  0.567 sec
 * total energy  :  -348.4114392 Eh     change       -0.7958852E-02 Eh
   gradient norm :     0.0443760 Eh/α   predicted    -0.1415208E-01 (  77.82%)
   displ. norm   :     0.5725874 α      lambda       -0.1133288E-01
   maximum displ.:     0.2910807 α      in ANC's #52, #32, #15, ...

........................................................................
.............................. CYCLE   11 ..............................
........................................................................
   1   -353.9084016 -0.353908E+03  0.180E-01    0.00       0.0  T
   2   -353.6731599  0.235242E+00  0.661E-01    0.73       1.0  T
   3   -353.8040074 -0.130847E+00  0.470E-01    0.02       1.0  T
   4   -353.8682622 -0.642548E-01  0.331E-01    0.05       1.0  T
   5   -353.9241611 -0.558990E-01  0.219E-02    0.01       1.0  T
   6   -353.9243384 -0.177297E-03  0.107E-02    0.00       1.0  T
   7   -353.9240440  0.294404E-03  0.257E-02    0.00       1.0  T
   8   -353.9243782 -0.334210E-03  0.405E-03    0.00       1.7  T
   9   -353.9243864 -0.819355E-05  0.147E-03    0.00       4.6  T
  10   -353.9243867 -0.286017E-06  0.119E-03    0.00       5.7  T
  11   -353.9243872 -0.487831E-06  0.690E-04    0.00       9.9  T
  12   -353.9243873 -0.116421E-06  0.524E-04    0.00      13.0  T
  13   -353.9243874 -0.116383E-06  0.224E-04    0.00      30.4  T
  14   -353.9243875 -0.107211E-07  0.185E-04    0.00      36.9  T
  15   -353.9243875 -0.154300E-07  0.651E-05    0.00     104.8  T
     SCC iter.                  ...        0 min,  2.380 sec
     gradient                   ...        0 min,  0.574 sec
 * total energy  :  -348.4184213 Eh     change       -0.6982074E-02 Eh
   gradient norm :     0.0300639 Eh/α   predicted    -0.7524226E-02 (   7.76%)
   displ. norm   :     0.6654631 α      lambda       -0.8187735E-02
   maximum displ.:     0.3722473 α      in ANC's #32, #52, #15, ...

........................................................................
.............................. CYCLE   12 ..............................
........................................................................
   1   -353.9581939 -0.353958E+03  0.978E-02    0.00       0.0  T
   2   -353.7881467  0.170047E+00  0.569E-01    0.50       1.0  T
   3   -353.9550169 -0.166870E+00  0.123E-01    0.02       1.0  T
   4   -353.9544747  0.542196E-03  0.121E-01    0.02       1.0  T
   5   -353.9616342 -0.715957E-02  0.489E-02    0.00       1.0  T
   6   -353.9626186 -0.984398E-03  0.216E-02    0.00       1.0  T
   7   -353.9628127 -0.194079E-03  0.105E-02    0.00       1.0  T
   8   -353.9628630 -0.503247E-04  0.343E-03    0.00       2.0  T
   9   -353.9628669 -0.384179E-05  0.217E-03    0.00       3.1  T
  10   -353.9628688 -0.193636E-05  0.972E-04    0.00       7.0  T
  11   -353.9628692 -0.345890E-06  0.513E-04    0.00      13.3  T
  12   -353.9628693 -0.120775E-06  0.149E-04    0.00      45.9  T
  13   -353.9628693 -0.102983E-07  0.402E-05    0.00     169.7  T
     SCC iter.                  ...        0 min,  2.057 sec
     gradient                   ...        0 min,  0.576 sec
 * total energy  :  -348.4237654 Eh     change       -0.5344095E-02 Eh
   gradient norm :     0.0319867 Eh/α   predicted    -0.5906832E-02 (  10.53%)
   displ. norm   :     0.7078658 α      lambda       -0.7984131E-02
   maximum displ.:     0.4168254 α      in ANC's #32, #52, #15, ...

........................................................................
.............................. CYCLE   13 ..............................
........................................................................
   1   -353.9811035 -0.353981E+03  0.188E-02    0.00       0.0  T
   2   -353.9248775  0.562260E-01  0.322E-01    0.04       1.0  T
   3   -353.9770565 -0.521790E-01  0.880E-02    0.01       1.0  T
   4   -353.9638884  0.131681E-01  0.177E-01    0.03       1.0  T
   5   -353.9802830 -0.163946E-01  0.427E-02    0.00       1.0  T
   6   -353.9811838 -0.900750E-03  0.833E-03    0.00       1.0  T
   7   -353.9812076 -0.238581E-04  0.397E-03    0.00       1.7  T
   8   -353.9812146 -0.698439E-05  0.182E-03    0.00       3.8  T
   9   -353.9812161 -0.147598E-05  0.651E-04    0.00      10.5  T
  10   -353.9812163 -0.224311E-06  0.119E-04    0.00      57.2  T
  11   -353.9812163  0.143650E-07  0.206E-04    0.00      33.2  T
  12   -353.9812163 -0.179227E-07  0.918E-05    0.00      74.3  T
     SCC iter.                  ...        0 min,  1.912 sec
     gradient                   ...        0 min,  0.574 sec
 * total energy  :  -348.4288572 Eh     change       -0.5091782E-02 Eh
   gradient norm :     0.0266423 Eh/α   predicted    -0.5992390E-02 (  17.69%)
   displ. norm   :     0.6920457 α      lambda       -0.5820662E-02
   maximum displ.:     0.4194724 α      in ANC's #32, #52, #15, ...

........................................................................
.............................. CYCLE   14 ..............................
........................................................................
   1   -354.0034479 -0.354003E+03  0.180E-02    0.00       0.0  T
   2   -353.9258445  0.776034E-01  0.379E-01    0.05       1.0  T
   3   -354.0024837 -0.766391E-01  0.445E-02    0.01       1.0  T
   4   -353.9957389  0.674473E-02  0.118E-01    0.02       1.0  T
   5   -354.0035159 -0.777692E-02  0.118E-02    0.00       1.0  T
   6   -354.0035696 -0.536949E-04  0.529E-03    0.00       1.3  T
   7   -354.0035767 -0.710032E-05  0.382E-03    0.00       1.8  T
   8   -354.0035832 -0.649991E-05  0.154E-03    0.00       4.4  T
   9   -354.0035843 -0.117727E-05  0.328E-04    0.00      20.8  T
  10   -354.0035844 -0.450608E-07  0.169E-04    0.00      40.4  T
  11   -354.0035844 -0.199282E-08  0.156E-04    0.00      43.7  T
     SCC iter.                  ...        0 min,  1.748 sec
     gradient                   ...        0 min,  0.575 sec
 * total energy  :  -348.4325448 Eh     change       -0.3687609E-02 Eh
   gradient norm :     0.0290254 Eh/α   predicted    -0.4304171E-02 (  16.72%)
   displ. norm   :     0.6991039 α      lambda       -0.6752953E-02
   maximum displ.:     0.4314274 α      in ANC's #32, #52, #15, ...

........................................................................
.............................. CYCLE   15 ..............................
........................................................................
   1   -354.0275853 -0.354028E+03  0.193E-02    0.00       0.0  T
   2   -353.9359579  0.916274E-01  0.400E-01    0.06       1.0  T
   3   -354.0271007 -0.911429E-01  0.342E-02    0.00       1.0  T
   4   -354.0148759  0.122248E-01  0.156E-01    0.03       1.0  T
   5   -354.0277322 -0.128563E-01  0.526E-03    0.00       1.3  T
   6   -354.0277324 -0.212760E-06  0.430E-03    0.00       1.6  T
   7   -354.0277351 -0.270766E-05  0.356E-03    0.00       1.9  T
   8   -354.0277412 -0.604158E-05  0.113E-03    0.00       6.0  T
   9   -354.0277419 -0.714442E-06  0.254E-04    0.00      26.9  T
  10   -354.0277419 -0.273138E-07  0.164E-04    0.00      41.7  T
  11   -354.0277419 -0.110737E-07  0.852E-05    0.00      80.0  T
     SCC iter.                  ...        0 min,  1.749 sec
     gradient                   ...        0 min,  0.578 sec
 * total energy  :  -348.4358818 Eh     change       -0.3336981E-02 Eh
   gradient norm :     0.0225582 Eh/α   predicted    -0.5026733E-02 (  50.64%)
   displ. norm   :     0.6300701 α      lambda       -0.4646113E-02
   maximum displ.:     0.4171362 α      in ANC's #32, #15, #52, ...

........................................................................
.............................. CYCLE   16 ..............................
........................................................................
   1   -354.0463431 -0.354046E+03  0.385E-02    0.00       0.0  T
   2   -353.8927837  0.153559E+00  0.530E-01    0.12       1.0  T
   3   -354.0431773 -0.150394E+00  0.822E-02    0.01       1.0  T
   4   -354.0441072 -0.929948E-03  0.738E-02    0.00       1.0  T
   5   -354.0469529 -0.284569E-02  0.132E-02    0.00       1.0  T
   6   -354.0470491 -0.962289E-04  0.292E-03    0.00       2.3  T
   7   -354.0469886  0.605185E-04  0.110E-02    0.00       1.0  T
   8   -354.0470321 -0.435331E-04  0.630E-03    0.00       1.1  T
   9   -354.0470458 -0.136226E-04  0.379E-03    0.00       1.8  T
  10   -354.0470510 -0.519121E-05  0.216E-03    0.00       3.2  T
  11   -354.0470532 -0.224795E-05  0.635E-04    0.00      10.7  T
  12   -354.0470534 -0.202267E-06  0.103E-04    0.00      66.2  T
  13   -354.0470534  0.316464E-08  0.134E-04    0.00      51.0  T
     SCC iter.                  ...        0 min,  2.060 sec
     gradient                   ...        0 min,  0.577 sec
 * total energy  :  -348.4386665 Eh     change       -0.2784736E-02 Eh
   gradient norm :     0.0222843 Eh/α   predicted    -0.3245283E-02 (  16.54%)
   displ. norm   :     0.6075328 α      lambda       -0.4575355E-02
   maximum displ.:     0.3981763 α      in ANC's #32, #15, #37, ...

........................................................................
.............................. CYCLE   17 ..............................
........................................................................
   1   -354.0539679 -0.354054E+03  0.963E-02    0.01       0.0  T
   2   -353.8960233  0.157945E+00  0.543E-01    0.01       1.0  T
   3   -354.0488712 -0.152848E+00  0.133E-01    0.02       1.0  T
   4   -354.0470462  0.182502E-02  0.143E-01    0.02       1.0  T
   5   -354.0581606 -0.111144E-01  0.221E-02    0.00       1.0  T
   6   -354.0569507  0.120989E-02  0.535E-02    0.01       1.0  T
   7   -354.0581973 -0.124657E-02  0.205E-02    0.00       1.0  T
   8   -354.0582591 -0.618718E-04  0.174E-02    0.00       1.0  T
   9   -354.0584038 -0.144630E-03  0.451E-03    0.00       1.5  T
  10   -354.0584134 -0.963430E-05  0.132E-03    0.00       5.2  T
  11   -354.0584142 -0.784200E-06  0.414E-04    0.00      16.5  T
  12   -354.0584143 -0.667899E-07  0.195E-04    0.00      35.0  T
  13   -354.0584143 -0.775401E-09  0.190E-04    0.00      36.0  T
     SCC iter.                  ...        0 min,  2.056 sec
     gradient                   ...        0 min,  0.577 sec
 * total energy  :  -348.4410118 Eh     change       -0.2345280E-02 Eh
   gradient norm :     0.0218633 Eh/α   predicted    -0.3132056E-02 (  33.55%)
   displ. norm   :     0.5824186 α      lambda       -0.3110963E-02
   maximum displ.:     0.3805390 α      in ANC's #32, #15, #37, ...

........................................................................
.............................. CYCLE   18 ..............................
........................................................................
   1   -354.0694348 -0.354069E+03  0.596E-02    0.01       0.0  T
   2   -353.8961284  0.173306E+00  0.566E-01    0.10       1.0  T
   3   -354.0254210 -0.129293E+00  0.284E-01    0.05       1.0  T
   4   -354.0710904 -0.456694E-01  0.130E-02    0.00       1.0  T
   5   -354.0709551  0.135297E-03  0.205E-02    0.00       1.0  T
   6   -354.0709736 -0.185327E-04  0.202E-02    0.00       1.0  T
   7   -354.0710002 -0.265197E-04  0.186E-02    0.00       1.0  T
   8   -354.0711095 -0.109393E-03  0.117E-02    0.00       1.0  T
   9   -354.0711565 -0.469078E-04  0.663E-03    0.00       1.0  T
  10   -354.0711789 -0.224739E-04  0.297E-04    0.00      22.9  T
  11   -354.0711789 -0.148774E-07  0.246E-04    0.00      27.7  T
  12   -354.0711789  0.180714E-07  0.310E-04    0.00      22.0  T
  13   -354.0711790 -0.349838E-07  0.162E-04    0.00      42.2  T
  14   -354.0711790 -0.131305E-07  0.469E-06    0.00    1454.1  T
     SCC iter.                  ...        0 min,  2.220 sec
     gradient                   ...        0 min,  0.577 sec
 * total energy  :  -348.4433821 Eh     change       -0.2370297E-02 Eh
   gradient norm :     0.0133071 Eh/α   predicted    -0.2083120E-02 ( -12.12%)
   displ. norm   :     0.7260539 α      lambda       -0.3239591E-02
   maximum displ.:     0.4745112 α      in ANC's #32, #15, #37, ...

........................................................................
.............................. CYCLE   19 ..............................
........................................................................
   1   -354.0810704 -0.354081E+03  0.801E-02    0.01       0.0  T
   2   -353.9255021  0.155568E+00  0.540E-01    0.02       1.0  T
   3   -354.0699221 -0.144420E+00  0.159E-01    0.02       1.0  T
   4   -354.0831033 -0.131812E-01  0.465E-02    0.01       1.0  T
   5   -354.0841185 -0.101523E-02  0.114E-02    0.00       1.0  T
   6   -354.0834522  0.666338E-03  0.383E-02    0.01       1.0  T
   7   -354.0841651 -0.712877E-03  0.709E-03    0.00       1.0  T
   8   -354.0841305  0.345310E-04  0.108E-02    0.00       1.0  T
   9   -354.0841880 -0.574913E-04  0.195E-03    0.00       3.5  T
  10   -354.0841899 -0.187687E-05  0.318E-04    0.00      21.4  T
  11   -354.0841898  0.757599E-07  0.502E-04    0.00      13.6  T
  12   -354.0841899 -0.710192E-07  0.329E-04    0.00      20.7  T
  13   -354.0841899 -0.528191E-07  0.450E-05    0.00     151.5  T
  14   -354.0841899 -0.988564E-09  0.190E-06    0.00    3592.3  T
     SCC iter.                  ...        0 min,  2.208 sec
     gradient                   ...        0 min,  0.575 sec
 * total energy  :  -348.4455752 Eh     change       -0.2193139E-02 Eh
   gradient norm :     0.0151255 Eh/α   predicted    -0.2473682E-02 (  12.79%)
   displ. norm   :     0.7262842 α      lambda       -0.2516820E-02
   maximum displ.:     0.4784873 α      in ANC's #32, #15, #37, ...

........................................................................
.............................. CYCLE   20 ..............................
........................................................................
   1   -354.0920241 -0.354092E+03  0.771E-02    0.01       0.0  T
   2   -353.9119467  0.180077E+00  0.578E-01    0.09       1.0  T
   3   -354.0121859 -0.100239E+00  0.382E-01    0.07       1.0  T
   4   -354.0947845 -0.825986E-01  0.144E-02    0.00       1.0  T
   5   -354.0943857  0.398782E-03  0.304E-02    0.00       1.0  T
   6   -354.0937351  0.650623E-03  0.476E-02    0.01       1.0  T
   7   -354.0944945 -0.759440E-03  0.272E-02    0.00       1.0  T
   8   -354.0947688 -0.274220E-03  0.141E-02    0.00       1.0  T
   9   -354.0948671 -0.983819E-04  0.166E-03    0.00       4.1  T
  10   -354.0948684 -0.129759E-05  0.469E-04    0.00      14.5  T
  11   -354.0948684  0.633870E-07  0.602E-04    0.00      11.3  T
  12   -354.0948685 -0.108033E-06  0.380E-04    0.00      17.9  T
  13   -354.0948686 -0.638788E-07  0.126E-04    0.00      54.2  T
  14   -354.0948686 -0.739669E-08  0.272E-05    0.00     250.6  T
     SCC iter.                  ...        0 min,  2.219 sec
     gradient                   ...        0 min,  0.574 sec
 * total energy  :  -348.4475799 Eh     change       -0.2004712E-02 Eh
   gradient norm :     0.0171997 Eh/α   predicted    -0.1922215E-02 (  -4.12%)
   displ. norm   :     0.7267981 α      lambda       -0.2453331E-02
   maximum displ.:     0.4488638 α      in ANC's #32, #15, #37, ...
 * RMSD in coord.:     0.6325268 α      energy gain  -0.8993313E+00 Eh

generating ANC from model Hessian ...
Using Lindh-Hessian (1995)
 Shifting diagonal of input Hessian by    1.0012731858974474E-002
 Lowest  eigenvalues of input Hessian
    0.010000    0.010002    0.010004    0.010007    0.010008    0.010011
    0.000000    0.000000    0.000000    0.000000    0.000000    0.000000
    0.010025    0.010031    0.010049    0.010074    0.010113    0.010122
 Highest eigenvalues
    2.186744    2.195228    2.608164    2.615227    2.934356    2.936281


........................................................................
.............................. CYCLE   21 ..............................
........................................................................
   1   -354.1025616 -0.354103E+03  0.524E-02    0.01       0.0  T
   2   -353.9534101  0.149151E+00  0.533E-01    0.04       1.0  T
   3   -354.0906507 -0.137241E+00  0.152E-01    0.01       1.0  T
   4   -354.1025414 -0.118907E-01  0.490E-02    0.00       1.0  T
   5   -354.1035711 -0.102962E-02  0.230E-02    0.00       1.0  T
   6   -354.1037927 -0.221621E-03  0.968E-03    0.00       1.0  T
   7   -354.1034926  0.300057E-03  0.262E-02    0.00       1.0  T
   8   -354.1037858 -0.293147E-03  0.102E-02    0.00       1.0  T
   9   -354.1037896 -0.379113E-05  0.997E-03    0.00       1.0  T
  10   -354.1038382 -0.486665E-04  0.157E-03    0.00       4.3  T
  11   -354.1038394 -0.120944E-05  0.242E-04    0.00      28.2  T
  12   -354.1038394  0.596644E-07  0.426E-04    0.00      16.0  T
  13   -354.1038395 -0.723030E-07  0.187E-04    0.00      36.5  T
  14   -354.1038395 -0.151160E-07  0.669E-05    0.00     101.9  T
     SCC iter.                  ...        0 min,  2.216 sec
     gradient                   ...        0 min,  0.581 sec
 * total energy  :  -348.4492206 Eh     change       -0.1640705E-02 Eh
   gradient norm :     0.0141257 Eh/α   predicted     0.0000000E+00 (-100.00%)
   displ. norm   :     0.2007108 α      lambda       -0.7301849E-03
   maximum displ.:     0.1173495 α      in ANC's #31, #14, #34, ...

........................................................................
.............................. CYCLE   22 ..............................
........................................................................
   1   -354.1062421 -0.354106E+03  0.347E-02    0.00       0.0  T
   2   -353.9696902  0.136552E+00  0.511E-01    0.17       1.0  T
   3   -354.1058988 -0.136209E+00  0.406E-02    0.01       1.0  T
   4   -354.1053833  0.515448E-03  0.505E-02    0.01       1.0  T
   5   -354.1068023 -0.141897E-02  0.746E-03    0.00       1.0  T
   6   -354.1068281 -0.258195E-04  0.296E-03    0.00       2.3  T
   7   -354.1068213  0.676951E-05  0.466E-03    0.00       1.5  T
   8   -354.1068318 -0.104709E-04  0.969E-04    0.00       7.0  T
   9   -354.1068304  0.140252E-05  0.192E-03    0.00       3.5  T
  10   -354.1068322 -0.178365E-05  0.448E-04    0.00      15.2  T
  11   -354.1068323 -0.908083E-07  0.152E-04    0.00      44.8  T
  12   -354.1068323 -0.117337E-07  0.255E-05    0.00     267.8  T
     SCC iter.                  ...        0 min,  1.911 sec
     gradient                   ...        0 min,  0.577 sec
 * total energy  :  -348.4498138 Eh     change       -0.5931920E-03 Eh
   gradient norm :     0.0074194 Eh/α   predicted    -0.3798273E-03 ( -35.97%)
   displ. norm   :     0.5844911 α      lambda       -0.1680122E-02
   maximum displ.:     0.3070168 α      in ANC's #31, #14, #32, ...

........................................................................
.............................. CYCLE   23 ..............................
........................................................................
   1   -354.1067426 -0.354107E+03  0.975E-02    0.00       0.0  T
   2   -353.9228090  0.183934E+00  0.594E-01    0.49       1.0  T
   3   -354.0274711 -0.104662E+00  0.389E-01    0.01       1.0  T
   4   -354.1032125 -0.757414E-01  0.129E-01    0.02       1.0  T
   5   -354.1113531 -0.814067E-02  0.119E-02    0.00       1.0  T
   6   -354.1113196  0.335747E-04  0.139E-02    0.00       1.0  T
   7   -354.1113718 -0.522879E-04  0.933E-03    0.00       1.0  T
   8   -354.1114150 -0.431359E-04  0.161E-03    0.00       4.2  T
   9   -354.1114163 -0.130662E-05  0.238E-04    0.00      28.6  T
  10   -354.1114161  0.158443E-06  0.619E-04    0.00      11.0  T
  11   -354.1114163 -0.188308E-06  0.650E-05    0.00     104.9  T
  12   -354.1114163  0.898979E-09  0.787E-05    0.00      86.7  T
     SCC iter.                  ...        0 min,  1.904 sec
     gradient                   ...        0 min,  0.577 sec
 * total energy  :  -348.4503936 Eh     change       -0.5797426E-03 Eh
   gradient norm :     0.0159419 Eh/α   predicted    -0.1127057E-02 (  94.41%)
   displ. norm   :     0.4144479 α      lambda       -0.1654407E-02
   maximum displ.:     0.2286378 α      in ANC's #31, #14, #34, ...

........................................................................
.............................. CYCLE   24 ..............................
........................................................................
   1   -354.1135922 -0.354114E+03  0.378E-02    0.00       0.0  T
   2   -353.9666320  0.146960E+00  0.530E-01    0.18       1.0  T
   3   -354.1099186 -0.143287E+00  0.876E-02    0.01       1.0  T
   4   -354.1138164 -0.389777E-02  0.289E-02    0.00       1.0  T
   5   -354.1142299 -0.413518E-03  0.103E-02    0.00       1.0  T
   6   -354.1142694 -0.395141E-04  0.571E-03    0.00       1.2  T
   7   -354.1142718 -0.240293E-05  0.519E-03    0.00       1.3  T
   8   -354.1142835 -0.116851E-04  0.198E-03    0.00       3.4  T
   9   -354.1142840 -0.415468E-06  0.173E-03    0.00       3.9  T
  10   -354.1142855 -0.152588E-05  0.115E-04    0.00      59.4  T
  11   -354.1142855 -0.314066E-08  0.852E-05    0.00      80.0  T
  12   -354.1142855 -0.173048E-08  0.651E-05    0.00     104.7  T
     SCC iter.                  ...        0 min,  1.908 sec
     gradient                   ...        0 min,  0.578 sec
 * total energy  :  -348.4512327 Eh     change       -0.8391302E-03 Eh
   gradient norm :     0.0173144 Eh/α   predicted    -0.9692893E-03 (  15.51%)
   displ. norm   :     0.3496611 α      lambda       -0.1024613E-02
   maximum displ.:     0.1739996 α      in ANC's #14, #31, #39, ...

........................................................................
.............................. CYCLE   25 ..............................
........................................................................
   1   -354.1139989 -0.354114E+03  0.135E-02    0.00       0.0  T
   2   -354.0539232  0.600757E-01  0.339E-01    0.03       1.0  T
   3   -354.1137164 -0.597932E-01  0.256E-02    0.00       1.0  T
   4   -354.1125443  0.117206E-02  0.529E-02    0.00       1.0  T
   5   -354.1140628 -0.151841E-02  0.678E-03    0.00       1.0  T
   6   -354.1140841 -0.212996E-04  0.241E-03    0.00       2.8  T
   7   -354.1140861 -0.199409E-05  0.130E-03    0.00       5.2  T
   8   -354.1140865 -0.475066E-06  0.755E-04    0.00       9.0  T
   9   -354.1140868 -0.289509E-06  0.568E-05    0.00     120.0  T
  10   -354.1140868  0.706791E-09  0.866E-05    0.00      78.7  T
     SCC iter.                  ...        0 min,  1.588 sec
     gradient                   ...        0 min,  0.581 sec
 * total energy  :  -348.4516086 Eh     change       -0.3758632E-03 Eh
   gradient norm :     0.0137755 Eh/α   predicted    -0.5749425E-03 (  52.97%)
   displ. norm   :     0.3617856 α      lambda       -0.1117738E-02
   maximum displ.:     0.1909873 α      in ANC's #14, #31, #21, ...

........................................................................
.............................. CYCLE   26 ..............................
........................................................................
   1   -354.1163947 -0.354116E+03  0.270E-02    0.00       0.0  T
   2   -354.0032621  0.113133E+00  0.467E-01    0.02       1.0  T
   3   -354.1161887 -0.112927E+00  0.316E-02    0.00       1.0  T
   4   -354.1140969  0.209176E-02  0.686E-02    0.00       1.0  T
   5   -354.1167365 -0.263963E-02  0.436E-03    0.00       1.6  T
   6   -354.1167462 -0.970693E-05  0.130E-03    0.00       5.2  T
   7   -354.1167422  0.399215E-05  0.315E-03    0.00       2.2  T
   8   -354.1167422  0.247323E-07  0.309E-03    0.00       2.2  T
   9   -354.1167466 -0.442391E-05  0.978E-04    0.00       7.0  T
  10   -354.1167467 -0.491059E-07  0.916E-04    0.00       7.4  T
  11   -354.1167470 -0.287402E-06  0.513E-04    0.00      13.3  T
  12   -354.1167471 -0.130677E-06  0.448E-05    0.00     152.4  T
  13   -354.1167471  0.187634E-08  0.765E-05    0.00      89.2  T
     SCC iter.                  ...        0 min,  2.060 sec
     gradient                   ...        0 min,  0.580 sec
 * total energy  :  -348.4523053 Eh     change       -0.6967715E-03 Eh
   gradient norm :     0.0083202 Eh/α   predicted    -0.6320209E-03 (  -9.29%)
   displ. norm   :     0.4802451 α      lambda       -0.1018981E-02
   maximum displ.:     0.2637336 α      in ANC's #14, #31, #21, ...

........................................................................
.............................. CYCLE   27 ..............................
........................................................................
   1   -354.1199478 -0.354120E+03  0.282E-02    0.00       0.0  T
   2   -354.0039833  0.115964E+00  0.473E-01    0.01       1.0  T
   3   -354.1198426 -0.115859E+00  0.298E-02    0.00       1.0  T
   4   -354.1168608  0.298172E-02  0.784E-02    0.00       1.0  T
   5   -354.1203158 -0.345494E-02  0.542E-03    0.00       1.3  T
   6   -354.1203306 -0.147966E-04  0.982E-04    0.00       6.9  T
   7   -354.1203267  0.390919E-05  0.304E-03    0.00       2.2  T
   8   -354.1203275 -0.784139E-06  0.269E-03    0.00       2.5  T
   9   -354.1203301 -0.261881E-05  0.147E-03    0.00       4.6  T
  10   -354.1203305 -0.440219E-06  0.112E-03    0.00       6.1  T
  11   -354.1203310 -0.456789E-06  0.577E-04    0.00      11.8  T
  12   -354.1203311 -0.159922E-06  0.110E-04    0.00      61.9  T
  13   -354.1203311 -0.446823E-08  0.555E-05    0.00     122.8  T
     SCC iter.                  ...        0 min,  2.060 sec
     gradient                   ...        0 min,  0.581 sec
 * total energy  :  -348.4529117 Eh     change       -0.6063535E-03 Eh
   gradient norm :     0.0063398 Eh/α   predicted    -0.6269996E-03 (   3.40%)
   displ. norm   :     0.5264694 α      lambda       -0.6834007E-03
   maximum displ.:     0.2955293 α      in ANC's #14, #31, #21, ...

........................................................................
.............................. CYCLE   28 ..............................
........................................................................
   1   -354.1238782 -0.354124E+03  0.208E-02    0.00       0.0  T
   2   -354.0302817  0.935965E-01  0.426E-01    0.00       1.0  T
   3   -354.1239448 -0.936632E-01  0.167E-02    0.00       1.0  T
   4   -354.1202356  0.370924E-02  0.823E-02    0.01       1.0  T
   5   -354.1240861 -0.385054E-02  0.130E-03    0.00       5.3  T
   6   -354.1240865 -0.379457E-06  0.101E-03    0.00       6.7  T
   7   -354.1240864  0.655639E-07  0.109E-03    0.00       6.3  T
   8   -354.1240860  0.399389E-06  0.137E-03    0.00       5.0  T
   9   -354.1240870 -0.949850E-06  0.896E-05    0.00      76.1  T
  10   -354.1240869  0.340370E-07  0.284E-04    0.00      24.1  T
  11   -354.1240870 -0.163703E-07  0.216E-04    0.00      31.6  T
  12   -354.1240870 -0.197970E-07  0.820E-05    0.00      83.2  T
     SCC iter.                  ...        0 min,  1.905 sec
     gradient                   ...        0 min,  0.578 sec
 * total energy  :  -348.4533775 Eh     change       -0.4657706E-03 Eh
   gradient norm :     0.0060964 Eh/α   predicted    -0.4364099E-03 (  -6.30%)
   displ. norm   :     0.5398549 α      lambda       -0.6452553E-03
   maximum displ.:     0.3098663 α      in ANC's #14, #31, #21, ...

........................................................................
.............................. CYCLE   29 ..............................
........................................................................
   1   -354.1294955 -0.354129E+03  0.232E-02    0.00       0.0  T
   2   -354.0222905  0.107205E+00  0.454E-01    0.04       1.0  T
   3   -354.1286240 -0.106334E+00  0.446E-02    0.00       1.0  T
   4   -354.1285330  0.909602E-04  0.472E-02    0.00       1.0  T
   5   -354.1297503 -0.121728E-02  0.297E-03    0.00       2.3  T
   6   -354.1297550 -0.472858E-05  0.733E-04    0.00       9.3  T
   7   -354.1297533  0.172591E-05  0.199E-03    0.00       3.4  T
   8   -354.1297535 -0.209432E-06  0.184E-03    0.00       3.7  T
   9   -354.1297552 -0.169536E-05  0.282E-04    0.00      24.2  T
  10   -354.1297551  0.610020E-07  0.449E-04    0.00      15.2  T
  11   -354.1297552 -0.617912E-07  0.280E-04    0.00      24.4  T
  12   -354.1297552 -0.361536E-07  0.782E-05    0.00      87.2  T
  13   -354.1297552 -0.296916E-08  0.856E-06    0.00     796.8  T
     SCC iter.                  ...        0 min,  2.064 sec
     gradient                   ...        0 min,  0.578 sec
 * total energy  :  -348.4538553 Eh     change       -0.4778810E-03 Eh
   gradient norm :     0.0045996 Eh/α   predicted    -0.4166594E-03 ( -12.81%)
   displ. norm   :     0.4892362 α      lambda       -0.3961640E-03
   maximum displ.:     0.2986491 α      in ANC's #14, #31, #21, ...

........................................................................
.............................. CYCLE   30 ..............................
........................................................................
   1   -354.1359627 -0.354136E+03  0.177E-02    0.00       0.0  T
   2   -354.0457186  0.902441E-01  0.412E-01    0.06       1.0  T
   3   -354.1354183 -0.896997E-01  0.352E-02    0.01       1.0  T
   4   -354.1350047  0.413574E-03  0.455E-02    0.00       1.0  T
   5   -354.1361161 -0.111136E-02  0.250E-03    0.00       2.7  T
   6   -354.1361177 -0.164981E-05  0.184E-03    0.00       3.7  T
   7   -354.1361187 -0.995737E-06  0.116E-03    0.00       5.9  T
   8   -354.1361191 -0.390738E-06  0.727E-04    0.00       9.4  T
   9   -354.1361194 -0.266436E-06  0.829E-05    0.00      82.2  T
  10   -354.1361194  0.536687E-08  0.138E-04    0.00      49.5  T
     SCC iter.                  ...        0 min,  1.585 sec
     gradient                   ...        0 min,  0.578 sec
 * total energy  :  -348.4541862 Eh     change       -0.3308374E-03 Eh
   gradient norm :     0.0039254 Eh/α   predicted    -0.2454967E-03 ( -25.80%)
   displ. norm   :     0.4296586 α      lambda       -0.3212602E-03
   maximum displ.:     0.2750039 α      in ANC's #14, #21, #34, ...

........................................................................
.............................. CYCLE   31 ..............................
........................................................................
   1   -354.1424492 -0.354142E+03  0.806E-03    0.00       0.0  T
   2   -354.1075095  0.349397E-01  0.250E-01    0.04       1.0  T
   3   -354.1423771 -0.348676E-01  0.139E-02    0.00       1.0  T
   4   -354.1417844  0.592668E-03  0.368E-02    0.00       1.0  T
   5   -354.1424796 -0.695216E-03  0.266E-03    0.00       2.6  T
   6   -354.1424817 -0.202747E-05  0.170E-03    0.00       4.0  T
   7   -354.1424830 -0.132500E-05  0.455E-04    0.00      15.0  T
   8   -354.1424831 -0.906425E-07  0.162E-04    0.00      42.1  T
   9   -354.1424831 -0.127967E-07  0.301E-05    0.00     226.4  T
     SCC iter.                  ...        0 min,  1.437 sec
     gradient                   ...        0 min,  0.583 sec
 * total energy  :  -348.4544627 Eh     change       -0.2764977E-03 Eh
   gradient norm :     0.0034572 Eh/α   predicted    -0.1902844E-03 ( -31.18%)
   displ. norm   :     0.4140564 α      lambda       -0.2955825E-03
   maximum displ.:     0.2722897 α      in ANC's #14, #21, #34, ...

........................................................................
.............................. CYCLE   32 ..............................
........................................................................
   1   -354.1475809 -0.354148E+03  0.786E-03    0.00       0.0  T
   2   -354.1189717  0.286092E-01  0.234E-01    0.03       1.0  T
   3   -354.1475208 -0.285492E-01  0.127E-02    0.00       1.0  T
   4   -354.1470716  0.449218E-03  0.311E-02    0.01       1.0  T
   5   -354.1476108 -0.539192E-03  0.140E-03    0.00       4.9  T
   6   -354.1476118 -0.945516E-06  0.308E-04    0.00      22.2  T
   7   -354.1476117  0.232912E-07  0.291E-04    0.00      23.4  T
   8   -354.1476118 -0.470029E-07  0.755E-05    0.00      90.4  T
   9   -354.1476118 -0.354117E-08  0.114E-05    0.00     598.6  T
     SCC iter.                  ...        0 min,  1.433 sec
     gradient                   ...        0 min,  0.584 sec
 * total energy  :  -348.4547196 Eh     change       -0.2569409E-03 Eh
   gradient norm :     0.0030398 Eh/α   predicted    -0.1731299E-03 ( -32.62%)
   displ. norm   :     0.4284054 α      lambda       -0.2871716E-03
   maximum displ.:     0.2832639 α      in ANC's #14, #21, #24, ...

........................................................................
.............................. CYCLE   33 ..............................
........................................................................
   1   -354.1505003 -0.354151E+03  0.173E-02    0.00       0.0  T
   2   -354.0649084  0.855919E-01  0.407E-01    0.09       1.0  T
   3   -354.1505806 -0.856722E-01  0.111E-02    0.00       1.0  T
   4   -354.1456499  0.493068E-02  0.938E-02    0.01       1.0  T
   5   -354.1506471 -0.499723E-02  0.189E-03    0.00       3.6  T
   6   -354.1506480 -0.915641E-06  0.137E-03    0.00       5.0  T
   7   -354.1506488 -0.739404E-06  0.677E-04    0.00      10.1  T
   8   -354.1506490 -0.216751E-06  0.914E-05    0.00      74.6  T
   9   -354.1506490  0.202783E-07  0.219E-04    0.00      31.1  T
  10   -354.1506490 -0.164643E-07  0.122E-04    0.00      55.7  T
     SCC iter.                  ...        0 min,  1.586 sec
     gradient                   ...        0 min,  0.583 sec
 * total energy  :  -348.4549729 Eh     change       -0.2532565E-03 Eh
   gradient norm :     0.0026952 Eh/α   predicted    -0.1699401E-03 ( -32.90%)
   displ. norm   :     0.4577058 α      lambda       -0.2904507E-03
   maximum displ.:     0.3019262 α      in ANC's #14, #21, #24, ...

........................................................................
.............................. CYCLE   34 ..............................
........................................................................
   1   -354.1515322 -0.354152E+03  0.207E-02    0.00       0.0  T
   2   -354.0476204  0.103912E+00  0.447E-01    0.09       1.0  T
   3   -354.1512962 -0.103676E+00  0.281E-02    0.00       1.0  T
   4   -354.1502622  0.103399E-02  0.514E-02    0.01       1.0  T
   5   -354.1517409 -0.147869E-02  0.268E-03    0.00       2.5  T
   6   -354.1517440 -0.312181E-05  0.119E-03    0.00       5.7  T
   7   -354.1517440 -0.197316E-07  0.118E-03    0.00       5.8  T
   8   -354.1517447 -0.637381E-06  0.320E-04    0.00      21.3  T
   9   -354.1517446  0.265119E-07  0.391E-04    0.00      17.5  T
  10   -354.1517447 -0.530645E-07  0.215E-04    0.00      31.8  T
  11   -354.1517447 -0.224301E-07  0.424E-05    0.00     160.8  T
  12   -354.1517447 -0.899945E-09  0.838E-06    0.00     814.3  T
     SCC iter.                  ...        0 min,  1.909 sec
     gradient                   ...        0 min,  0.576 sec
 * total energy  :  -348.4552338 Eh     change       -0.2608978E-03 Eh
   gradient norm :     0.0028767 Eh/α   predicted    -0.1756536E-03 ( -32.67%)
   displ. norm   :     0.4961283 α      lambda       -0.3081358E-03
   maximum displ.:     0.3261951 α      in ANC's #14, #21, #24, ...

........................................................................
.............................. CYCLE   35 ..............................
........................................................................
   1   -354.1509396 -0.354151E+03  0.183E-02    0.00       0.0  T
   2   -354.0577933  0.931463E-01  0.423E-01    0.08       1.0  T
   3   -354.1507078 -0.929145E-01  0.264E-02    0.00       1.0  T
   4   -354.1497003  0.100749E-02  0.501E-02    0.01       1.0  T
   5   -354.1511035 -0.140325E-02  0.160E-03    0.00       4.3  T
   6   -354.1511044 -0.817240E-06  0.107E-03    0.00       6.3  T
   7   -354.1511044 -0.177014E-07  0.107E-03    0.00       6.4  T
   8   -354.1511049 -0.512221E-06  0.320E-04    0.00      21.3  T
   9   -354.1511049 -0.346113E-07  0.177E-04    0.00      38.6  T
  10   -354.1511049 -0.731683E-08  0.127E-04    0.00      53.7  T
     SCC iter.                  ...        0 min,  1.592 sec
     gradient                   ...        0 min,  0.580 sec
 * total energy  :  -348.4555125 Eh     change       -0.2787184E-03 Eh
   gradient norm :     0.0031956 Eh/α   predicted    -0.1919922E-03 ( -31.12%)
   displ. norm   :     0.5351208 α      lambda       -0.3238041E-03
   maximum displ.:     0.3515255 α      in ANC's #14, #21, #31, ...

........................................................................
.............................. CYCLE   36 ..............................
........................................................................
   1   -354.1491804 -0.354149E+03  0.854E-03    0.00       0.0  T
   2   -354.1170231  0.321573E-01  0.249E-01    0.03       1.0  T
   3   -354.1491319 -0.321088E-01  0.122E-02    0.00       1.0  T
   4   -354.1483205  0.811399E-03  0.400E-02    0.01       1.0  T
   5   -354.1492161 -0.895615E-03  0.537E-04    0.00      12.7  T
   6   -354.1492160  0.840283E-07  0.666E-04    0.00      10.2  T
   7   -354.1492161 -0.994974E-07  0.509E-04    0.00      13.4  T
   8   -354.1492162 -0.119444E-06  0.127E-04    0.00      53.6  T
   9   -354.1492163 -0.758064E-08  0.141E-05    0.00     482.5  T
     SCC iter.                  ...        0 min,  1.432 sec
     gradient                   ...        0 min,  0.578 sec
 * total energy  :  -348.4558011 Eh     change       -0.2886212E-03 Eh
   gradient norm :     0.0031952 Eh/α   predicted    -0.2082635E-03 ( -27.84%)
   displ. norm   :     0.5520824 α      lambda       -0.3051661E-03
   maximum displ.:     0.3638788 α      in ANC's #14, #31, #24, ...

........................................................................
.............................. CYCLE   37 ..............................
........................................................................
   1   -354.1464683 -0.354146E+03  0.173E-03    0.00       0.0  T
   2   -354.1453596  0.110861E-02  0.459E-02    0.00       1.0  T
   3   -354.1464637 -0.110406E-02  0.320E-03    0.00       2.1  T
   4   -354.1463937  0.699589E-04  0.117E-02    0.00       1.0  T
   5   -354.1464692 -0.754335E-04  0.725E-04    0.00       9.4  T
   6   -354.1464692 -0.309356E-07  0.647E-04    0.00      10.5  T
   7   -354.1464694 -0.194758E-06  0.208E-04    0.00      32.8  T
   8   -354.1464694 -0.188823E-07  0.728E-05    0.00      93.7  T
   9   -354.1464694 -0.244131E-08  0.191E-05    0.00     357.9  T
     SCC iter.                  ...        0 min,  1.429 sec
     gradient                   ...        0 min,  0.578 sec
 * total energy  :  -348.4560649 Eh     change       -0.2637896E-03 Eh
   gradient norm :     0.0028832 Eh/α   predicted    -0.1990914E-03 ( -24.53%)
   displ. norm   :     0.5227317 α      lambda       -0.2422357E-03
   maximum displ.:     0.3470651 α      in ANC's #14, #31, #18, ...

........................................................................
.............................. CYCLE   38 ..............................
........................................................................
   1   -354.1437175 -0.354144E+03  0.799E-03    0.00       0.0  T
   2   -354.1156280  0.280895E-01  0.232E-01    0.02       1.0  T
   3   -354.1436260 -0.279980E-01  0.147E-02    0.00       1.0  T
   4   -354.1432163  0.409699E-03  0.311E-02    0.00       1.0  T
   5   -354.1437477 -0.531397E-03  0.144E-03    0.00       4.7  T
   6   -354.1437477 -0.345225E-07  0.138E-03    0.00       4.9  T
   7   -354.1437485 -0.742483E-06  0.674E-04    0.00      10.1  T
   8   -354.1437486 -0.190439E-06  0.261E-04    0.00      26.1  T
   9   -354.1437487 -0.336340E-07  0.902E-06    0.00     755.9  T
  10   -354.1437487  0.480895E-10  0.147E-05    0.00     464.6  T
     SCC iter.                  ...        0 min,  1.588 sec
     gradient                   ...        0 min,  0.581 sec
 * total energy  :  -348.4562689 Eh     change       -0.2039698E-03 Eh
   gradient norm :     0.0025370 Eh/α   predicted    -0.1542150E-03 ( -24.39%)
   displ. norm   :     0.4376724 α      lambda       -0.1668803E-03
   maximum displ.:     0.2939124 α      in ANC's #14, #31, #18, ...

........................................................................
.............................. CYCLE   39 ..............................
........................................................................
   1   -354.1419564 -0.354142E+03  0.801E-03    0.00       0.0  T
   2   -354.1136647  0.282917E-01  0.233E-01    0.02       1.0  T
   3   -354.1418495 -0.281848E-01  0.156E-02    0.00       1.0  T
   4   -354.1414791  0.370368E-03  0.305E-02    0.00       1.0  T
   5   -354.1419865 -0.507375E-03  0.157E-03    0.00       4.3  T
   6   -354.1419866 -0.114847E-06  0.146E-03    0.00       4.7  T
   7   -354.1419874 -0.772884E-06  0.779E-04    0.00       8.8  T
   8   -354.1419877 -0.248851E-06  0.322E-04    0.00      21.2  T
   9   -354.1419877 -0.514807E-07  0.833E-06    0.00     818.9  T
  10   -354.1419877  0.936780E-10  0.163E-05    0.00     417.5  T
     SCC iter.                  ...        0 min,  1.591 sec
     gradient                   ...        0 min,  0.582 sec
 * total energy  :  -348.4564112 Eh     change       -0.1422854E-03 Eh
   gradient norm :     0.0024132 Eh/α   predicted    -0.9942636E-04 ( -30.12%)
   displ. norm   :     0.3608257 α      lambda       -0.1275312E-03
   maximum displ.:     0.2448025 α      in ANC's #14, #18, #31, ...

........................................................................
.............................. CYCLE   40 ..............................
........................................................................
   1   -354.1414519 -0.354141E+03  0.500E-03    0.00       0.0  T
   2   -354.1294525  0.119994E-01  0.151E-01    0.01       1.0  T
   3   -354.1413979 -0.119454E-01  0.108E-02    0.00       1.0  T
   4   -354.1412218  0.176080E-03  0.211E-02    0.00       1.0  T
   5   -354.1414627 -0.240892E-03  0.156E-03    0.00       4.4  T
   6   -354.1414631 -0.381898E-06  0.127E-03    0.00       5.4  T
   7   -354.1414637 -0.602627E-06  0.649E-04    0.00      10.5  T
   8   -354.1414639 -0.177413E-06  0.249E-04    0.00      27.4  T
   9   -354.1414639 -0.307235E-07  0.122E-05    0.00     557.6  T
  10   -354.1414639 -0.624709E-10  0.498E-06    0.00    1369.6  T
     SCC iter.                  ...        0 min,  1.589 sec
     gradient                   ...        0 min,  0.580 sec
 * total energy  :  -348.4565245 Eh     change       -0.1133105E-03 Eh
   gradient norm :     0.0022887 Eh/α   predicted    -0.7206934E-04 ( -36.40%)
   displ. norm   :     0.3579643 α      lambda       -0.1335627E-03
   maximum displ.:     0.2422253 α      in ANC's #14, #18, #24, ...

........................................................................
.............................. CYCLE   41 ..............................
........................................................................
   1   -354.1420043 -0.354142E+03  0.266E-03    0.00       0.0  T
   2   -354.1387078  0.329653E-02  0.794E-02    0.01       1.0  T
   3   -354.1419828 -0.327507E-02  0.668E-03    0.00       1.0  T
   4   -354.1419118  0.710028E-04  0.133E-02    0.00       1.0  T
   5   -354.1420066 -0.947076E-04  0.138E-03    0.00       4.9  T
   6   -354.1420071 -0.504806E-06  0.927E-04    0.00       7.4  T
   7   -354.1420074 -0.339202E-06  0.429E-04    0.00      15.9  T
   8   -354.1420075 -0.794651E-07  0.152E-04    0.00      45.0  T
   9   -354.1420075 -0.112261E-07  0.206E-05    0.00     331.4  T
     SCC iter.                  ...        0 min,  1.435 sec
     gradient                   ...        0 min,  0.579 sec
 * total energy  :  -348.4566452 Eh     change       -0.1206852E-03 Eh
   gradient norm :     0.0021500 Eh/α   predicted    -0.7534007E-04 ( -37.57%)
   displ. norm   :     0.4258923 α      lambda       -0.1645028E-03
   maximum displ.:     0.2855798 α      in ANC's #14, #18, #24, ...

........................................................................
.............................. CYCLE   42 ..............................
........................................................................
   1   -354.1432208 -0.354143E+03  0.691E-04    0.00       0.0  T
   2   -354.1431242  0.966651E-04  0.131E-02    0.00       1.0  T
   3   -354.1432206 -0.964702E-04  0.843E-04    0.00       8.1  T
   4   -354.1431861  0.344902E-04  0.814E-03    0.00       1.0  T
   5   -354.1432202 -0.340309E-04  0.125E-03    0.00       5.4  T
   6   -354.1432209 -0.755174E-06  0.202E-04    0.00      33.8  T
   7   -354.1432210 -0.174040E-07  0.783E-05    0.00      87.1  T
   8   -354.1432209  0.548255E-09  0.864E-05    0.00      78.9  T
     SCC iter.                  ...        0 min,  1.283 sec
     gradient                   ...        0 min,  0.586 sec
 * total energy  :  -348.4567917 Eh     change       -0.1465446E-03 Eh
   gradient norm :     0.0019381 Eh/α   predicted    -0.9717227E-04 ( -33.69%)
   displ. norm   :     0.7510190 α      lambda       -0.1839373E-03
   maximum displ.:     0.4984834 α      in ANC's #14, #18, #24, ...
 * RMSD in coord.:     0.5793526 α      energy gain  -0.9211764E-02 Eh

generating ANC from model Hessian ...
Using Lindh-Hessian (1995)
 Shifting diagonal of input Hessian by    1.0014365071539312E-002
 Lowest  eigenvalues of input Hessian
    0.010000    0.010002    0.010004    0.010008    0.010010    0.010013
    0.000000    0.000000    0.000000    0.000000    0.000000    0.000000
    0.010023    0.010038    0.010040    0.010057    0.010111    0.010118
 Highest eigenvalues
    2.212494    2.214079    2.641579    2.644286    2.973144    2.975905


........................................................................
.............................. CYCLE   43 ..............................
........................................................................
   1   -354.1455437 -0.354146E+03  0.334E-03    0.00       0.0  T
   2   -354.1389734  0.657035E-02  0.109E-01    0.00       1.0  T
   3   -354.1455328 -0.655942E-02  0.565E-03    0.00       1.2  T
   4   -354.1454540  0.787987E-04  0.134E-02    0.00       1.0  T
   5   -354.1455484 -0.944052E-04  0.142E-03    0.00       4.8  T
   6   -354.1455493 -0.907085E-06  0.422E-04    0.00      16.1  T
   7   -354.1455494 -0.723216E-07  0.110E-04    0.00      62.0  T
   8   -354.1455494 -0.494816E-08  0.865E-05    0.00      78.8  T
     SCC iter.                  ...        0 min,  1.275 sec
     gradient                   ...        0 min,  0.583 sec
 * total energy  :  -348.4570107 Eh     change       -0.2190022E-03 Eh
   gradient norm :     0.0020716 Eh/α   predicted     0.0000000E+00 (-100.00%)
   displ. norm   :     0.0549090 α      lambda       -0.4478218E-04
   maximum displ.:     0.0199947 α      in ANC's #14, #32, #31, ...

........................................................................
.............................. CYCLE   44 ..............................
........................................................................
   1   -354.1465428 -0.354147E+03  0.592E-04    0.00       0.0  T
   2   -354.1464266  0.116169E-03  0.151E-02    0.00       1.0  T
   3   -354.1465422 -0.115599E-03  0.120E-03    0.00       5.7  T
   4   -354.1465339  0.832012E-05  0.399E-03    0.00       1.7  T
   5   -354.1465428 -0.891703E-05  0.470E-04    0.00      14.5  T
   6   -354.1465429 -0.102862E-06  0.114E-04    0.00      59.7  T
   7   -354.1465429 -0.494498E-08  0.632E-05    0.00     107.9  T
     SCC iter.                  ...        0 min,  1.118 sec
     gradient                   ...        0 min,  0.579 sec
 * total energy  :  -348.4570392 Eh     change       -0.2852293E-04 Eh
   gradient norm :     0.0015853 Eh/α   predicted    -0.2247107E-04 ( -21.22%)
   displ. norm   :     0.2533069 α      lambda       -0.1058082E-03
   maximum displ.:     0.1198682 α      in ANC's #31, #14, #34, ...

........................................................................
.............................. CYCLE   45 ..............................
........................................................................
   1   -354.1507127 -0.354151E+03  0.261E-03    0.00       0.0  T
   2   -354.1480798  0.263287E-02  0.712E-02    0.01       1.0  T
   3   -354.1506941 -0.261428E-02  0.657E-03    0.00       1.0  T
   4   -354.1503994  0.294679E-03  0.236E-02    0.00       1.0  T
   5   -354.1507128 -0.313420E-03  0.238E-03    0.00       2.9  T
   6   -354.1507153 -0.252516E-05  0.703E-04    0.00       9.7  T
   7   -354.1507155 -0.151045E-06  0.416E-04    0.00      16.4  T
   8   -354.1507156 -0.876356E-07  0.482E-05    0.00     141.6  T
   9   -354.1507156 -0.950706E-09  0.221E-05    0.00     309.0  T
     SCC iter.                  ...        0 min,  1.432 sec
[...]
   181   7 N    3.241 --   163 C    1.258   166 C    1.223   149 Cu   0.499
   182   6 C    3.988 --   183 C    1.398   189 C    1.395   156 C    1.025
                           186 C    0.103
   183   6 C    3.987 --   184 C    1.415   182 C    1.398   207 H    0.972
                           187 C    0.104
   184   6 C    3.988 --   186 C    1.417   183 C    1.415   185 C    1.020
                           189 C    0.103
   185   6 C    3.996 --   184 C    1.020   208 H    0.983   210 H    0.982
                           209 H    0.971
   186   6 C    3.988 --   184 C    1.417   187 C    1.413   211 H    0.972
                           182 C    0.103
   187   6 C    3.988 --   189 C    1.419   186 C    1.413   188 C    1.020
                           183 C    0.104
   188   6 C    3.996 --   187 C    1.020   213 H    0.983   212 H    0.982
                           214 H    0.971
   189   6 C    3.987 --   187 C    1.419   182 C    1.395   215 H    0.972
                           184 C    0.103
   190   1 H    1.002 --   152 C    0.974
   191   1 H    1.005 --   153 C    0.973
   192   1 H    1.005 --   158 C    0.973
   193   1 H    1.002 --   159 C    0.974
   194   1 H    1.002 --   164 C    0.974
   195   1 H    1.005 --   165 C    0.973
   196   1 H    1.003 --   169 C    0.972
   197   1 H    1.004 --   171 C    0.984
   198   1 H    1.006 --   171 C    0.971
   199   1 H    1.004 --   171 C    0.982
   200   1 H    1.000 --   172 C    0.972
   201   1 H    1.004 --   174 C    0.984
   202   1 H    1.005 --   174 C    0.981
   203   1 H    1.006 --   174 C    0.971
   204   1 H    1.003 --   175 C    0.972
   205   1 H    1.005 --   177 C    0.973
   206   1 H    1.002 --   178 C    0.974
   207   1 H    1.003 --   183 C    0.972
   208   1 H    1.004 --   185 C    0.983
   209   1 H    1.006 --   185 C    0.971
   210   1 H    1.004 --   185 C    0.982
   211   1 H    1.000 --   186 C    0.972
   212   1 H    1.004 --   188 C    0.982
   213   1 H    1.004 --   188 C    0.983
   214   1 H    1.006 --   188 C    0.971
   215   1 H    1.003 --   189 C    0.972
 ---------------------------------------------------------------------------

Topologies differ in total number of bonds
Writing topology from bond orders to xtbtopo.mol

 dipole moment from electron density (au)
     X       Y       Z   
   0.0771   0.0146  -0.0379  total (Debye):    0.222

           -------------------------------------------------
          |                Geometry Summary                 |
           -------------------------------------------------

      molecular mass/u    :     1880.6421264
   center of mass at/Å    :       44.4075732      -0.0165287      -0.0180529
  moments of inertia/u·Å² :        0.3652389E+05   0.3223809E+06   0.3421815E+06
rotational constants/cm⁻¹ :        0.4615508E-03   0.5229104E-04   0.4926518E-04

 * 206 selected distances

     #   Z          #   Z                                           value/Å
     2   6 C        3   6 C                                       1.3869239
     3   6 C        4   6 C                                       1.4349388
     4   6 C        5   6 C                                       1.3562129
     5   6 C        6   6 C                                       1.4375696
     3   6 C        7   7 N                                       1.3658049
     6   6 C        7   7 N                                       1.3654257
     6   6 C        8   6 C                                       1.3965059
     8   6 C        9   6 C                                       1.3957349
     9   6 C       10   6 C                                       1.4354597
    10   6 C       11   6 C                                       1.3572149
     9   6 C       12   7 N                                       1.3700955
    11   6 C       13   6 C                                       1.4320830
    12   7 N       13   6 C                                       1.3607288
    13   6 C       14   6 C                                       1.4062121
    14   6 C       15   6 C                                       1.4060782
    15   6 C       16   6 C                                       1.4320913
    16   6 C       17   6 C                                       1.3572084
    17   6 C       18   6 C                                       1.4355303
    18   6 C       19   6 C                                       1.3956151
    20   6 C       21   6 C                                       1.3928775
    21   6 C       22   6 C                                       1.3920050
    22   6 C       24   6 C                                       1.3904114
    24   6 C       25   6 C                                       1.3929526
    20   6 C       27   6 C                                       1.3948759
    25   6 C       27   6 C                                       1.3896045
    19   6 C       28   6 C                                       1.3964865
    28   6 C       29   6 C                                       1.4376140
    29   6 C       30   6 C                                       1.3561790
     2   6 C       31   6 C                                       1.3868758
    30   6 C       31   6 C                                       1.4349833
    28   6 C       32   7 N                                       1.3654424
    31   6 C       32   7 N                                       1.3658536
    15   6 C       33   7 N                                       1.3607568
    18   6 C       33   7 N                                       1.3701195
    34   6 C       35   6 C                                       1.3941085
    35   6 C       36   6 C                                       1.3905752
    36   6 C       38   6 C                                       1.3920183
    38   6 C       39   6 C                                       1.3914079
    34   6 C       41   6 C                                       1.3938652
    39   6 C       41   6 C                                       1.3908902
     2   6 C       42   1 H                                       1.0851967
     4   6 C       43   1 H                                       1.0787119
     5   6 C       44   1 H                                       1.0781921
    10   6 C       45   1 H                                       1.0780038
    11   6 C       46   1 H                                       1.0783005
    16   6 C       47   1 H                                       1.0783279
    17   6 C       48   1 H                                       1.0780149
    21   6 C       49   1 H                                       1.0845864
    23   6 C       50   1 H                                       1.0899789
    23   6 C       51   1 H                                       1.0923697
    23   6 C       52   1 H                                       1.0905170
    24   6 C       53   1 H                                       1.0852125
    26   6 C       54   1 H                                       1.0898947
    26   6 C       55   1 H                                       1.0907846
    26   6 C       56   1 H                                       1.0921878
    27   6 C       57   1 H                                       1.0845547
    29   6 C       58   1 H                                       1.0781884
    30   6 C       59   1 H                                       1.0787438
    35   6 C       60   1 H                                       1.0845588
    37   6 C       61   1 H                                       1.0904196
    37   6 C       62   1 H                                       1.0900375
    37   6 C       63   1 H                                       1.0924144
    38   6 C       64   1 H                                       1.0852146
    40   6 C       65   1 H                                       1.0924517
    40   6 C       66   1 H                                       1.0901995
    40   6 C       67   1 H                                       1.0901873
    41   6 C       68   1 H                                       1.0845702
    70   6 C       71   6 C                                       1.3868933
    71   6 C       72   6 C                                       1.4350100
    72   6 C       73   6 C                                       1.3561830
    73   6 C       74   6 C                                       1.4376150
    71   6 C       75   7 N                                       1.3658132
    74   6 C       75   7 N                                       1.3654352
    74   6 C       76   6 C                                       1.3964097
    76   6 C       77   6 C                                       1.3957092
    77   6 C       78   6 C                                       1.4356063
    78   6 C       79   6 C                                       1.3570427
    77   6 C       80   7 N                                       1.3698536
    79   6 C       81   6 C                                       1.4323163
    80   7 N       81   6 C                                       1.3610392
    81   6 C       82   6 C                                       1.4055555
    82   6 C       83   6 C                                       1.4052561
    83   6 C       84   6 C                                       1.4322817
    84   6 C       85   6 C                                       1.3570923
    85   6 C       86   6 C                                       1.4356887
    86   6 C       87   6 C                                       1.3956974
    88   6 C       89   6 C                                       1.3928945
    89   6 C       90   6 C                                       1.3919905
    90   6 C       92   6 C                                       1.3904243
    92   6 C       93   6 C                                       1.3929165
    88   6 C       95   6 C                                       1.3949011
    93   6 C       95   6 C                                       1.3896507
    87   6 C       96   6 C                                       1.3964393
    96   6 C       97   6 C                                       1.4376762 (max)
    97   6 C       98   6 C                                       1.3561550
    70   6 C       99   6 C                                       1.3868775
    98   6 C       99   6 C                                       1.4350327
    96   6 C      100   7 N                                       1.3654925
    99   6 C      100   7 N                                       1.3658310
    83   6 C      101   7 N                                       1.3610360
    86   6 C      101   7 N                                       1.3698628
   102   6 C      103   6 C                                       1.3941206
   103   6 C      104   6 C                                       1.3905567
   104   6 C      106   6 C                                       1.3919912
   106   6 C      107   6 C                                       1.3914029
   102   6 C      109   6 C                                       1.3938199
   107   6 C      109   6 C                                       1.3909583
    70   6 C      110   1 H                                       1.0852100
    72   6 C      111   1 H                                       1.0787217
    73   6 C      112   1 H                                       1.0781994
    78   6 C      113   1 H                                       1.0780077
    79   6 C      114   1 H                                       1.0782888
    84   6 C      115   1 H                                       1.0783407
    85   6 C      116   1 H                                       1.0780307
    89   6 C      117   1 H                                       1.0845776
    91   6 C      118   1 H                                       1.0899854
    91   6 C      119   1 H                                       1.0923739
    91   6 C      120   1 H                                       1.0905109
    92   6 C      121   1 H                                       1.0852154
    94   6 C      122   1 H                                       1.0898924
    94   6 C      123   1 H                                       1.0907693
    94   6 C      124   1 H                                       1.0922021
    95   6 C      125   1 H                                       1.0845529
    97   6 C      126   1 H                                       1.0781920
    98   6 C      127   1 H                                       1.0787478
   103   6 C      128   1 H                                       1.0845585
   105   6 C      129   1 H                                       1.0904145
   105   6 C      130   1 H                                       1.0900360
   105   6 C      131   1 H                                       1.0924237
   106   6 C      132   1 H                                       1.0852147
   108   6 C      133   1 H                                       1.0924617
   108   6 C      134   1 H                                       1.0902174
   108   6 C      135   1 H                                       1.0901790
   109   6 C      136   1 H                                       1.0845702
   137   6 C      138   6 C                                       1.2282313
   139   6 C      140   6 C                                       1.2237311
   141   6 C      142   6 C                                       1.2239104
   143   6 C      144   6 C                                       1.2276313
   145   6 C      146   6 C                                       1.2233549
   147   6 C      148   6 C                                       1.2231683
   150   6 C      151   6 C                                       1.4066199
   151   6 C      152   6 C                                       1.4318980
   152   6 C      153   6 C                                       1.3575133
   153   6 C      154   6 C                                       1.4351442
   151   6 C      155   7 N                                       1.3603792
   154   6 C      155   7 N                                       1.3696295
   154   6 C      156   6 C                                       1.3961925
   156   6 C      157   6 C                                       1.3962378
   157   6 C      158   6 C                                       1.4352562
   158   6 C      159   6 C                                       1.3574142
   157   6 C      160   7 N                                       1.3695787
   159   6 C      161   6 C                                       1.4320222
   160   7 N      161   6 C                                       1.3605277
   161   6 C      162   6 C                                       1.4060029
   162   6 C      163   6 C                                       1.4059264
   163   6 C      164   6 C                                       1.4320268
   164   6 C      165   6 C                                       1.3573962
   165   6 C      166   6 C                                       1.4352563
   166   6 C      167   6 C                                       1.3963198
   168   6 C      169   6 C                                       1.3935943
   169   6 C      170   6 C                                       1.3913669
   170   6 C      172   6 C                                       1.3909787
   172   6 C      173   6 C                                       1.3924170
   168   6 C      175   6 C                                       1.3946823
   173   6 C      175   6 C                                       1.3900772
   167   6 C      176   6 C                                       1.3961508
   176   6 C      177   6 C                                       1.4351760
   177   6 C      178   6 C                                       1.3574953
   150   6 C      179   6 C                                       1.4066698
   178   6 C      179   6 C                                       1.4318848
   176   6 C      180   7 N                                       1.3697698
   179   6 C      180   7 N                                       1.3602451
   163   6 C      181   7 N                                       1.3606197
   166   6 C      181   7 N                                       1.3693776
   182   6 C      183   6 C                                       1.3937697
   183   6 C      184   6 C                                       1.3911383
   184   6 C      186   6 C                                       1.3913066
   186   6 C      187   6 C                                       1.3920449
   182   6 C      189   6 C                                       1.3944301
   187   6 C      189   6 C                                       1.3904234
   152   6 C      190   1 H                                       1.0783069
   153   6 C      191   1 H                                       1.0780024
   158   6 C      192   1 H                                       1.0779874
   159   6 C      193   1 H                                       1.0783136
   164   6 C      194   1 H                                       1.0783019
   165   6 C      195   1 H                                       1.0779918
   169   6 C      196   1 H                                       1.0845614
   171   6 C      197   1 H                                       1.0900845
   171   6 C      198   1 H                                       1.0924176
   171   6 C      199   1 H                                       1.0903540
   172   6 C      200   1 H                                       1.0852078
   174   6 C      201   1 H                                       1.0899706
   174   6 C      202   1 H                                       1.0905021
   174   6 C      203   1 H                                       1.0923806
   175   6 C      204   1 H                                       1.0845524
   177   6 C      205   1 H                                       1.0779804 (min)
   178   6 C      206   1 H                                       1.0783044
   183   6 C      207   1 H                                       1.0845516
   185   6 C      208   1 H                                       1.0901193
   185   6 C      209   1 H                                       1.0924795
   185   6 C      210   1 H                                       1.0902534
   186   6 C      211   1 H                                       1.0852089
   188   6 C      212   1 H                                       1.0903380
   188   6 C      213   1 H                                       1.0900902
   188   6 C      214   1 H                                       1.0924402
   189   6 C      215   1 H                                       1.0845619

 * 3 distinct bonds (by element types)

   Z      Z             #   av. dist./Å        max./Å        min./Å
   1 H    6 C          80     1.0856122     1.0924795     1.0779804
   6 C    6 C         102     1.3895111     1.4376762     1.2231683
   6 C    7 N          24     1.3653632     1.3701195     1.3602451


optimized geometry written to: xtbopt.xyz


           -------------------------------------------------
          | TOTAL ENERGY             -348.458219957166 Eh   |
          | GRADIENT NORM               0.000460003593 Eh/α |
          | HOMO-LUMO GAP               0.000021054327 eV   |
           -------------------------------------------------

------------------------------------------------------------------------
 * finished run on 2022/07/30 at 07:24:51.238     
------------------------------------------------------------------------
 total:
 * wall-time:     0 d,  0 h,  3 min, 30.780 sec
 *  cpu-time:     0 d,  0 h,  3 min, 29.864 sec
 * ratio c/w:     0.996 speedup
 SCF:
 * wall-time:     0 d,  0 h,  0 min,  6.067 sec
 *  cpu-time:     0 d,  0 h,  0 min,  6.039 sec
 * ratio c/w:     0.995 speedup
 ANC optimizer:
 * wall-time:     0 d,  0 h,  3 min, 24.470 sec
 *  cpu-time:     0 d,  0 h,  3 min, 23.586 sec
 * ratio c/w:     0.996 speedup

