215
 energy: -347.548248633263 gnorm: 1.750382621372 xtb: 6.5.1 (b24c23e)
Cu          27.72869500000000       -0.01805900000000       -0.01908900000000
C           24.37000600000000        0.18520200000000       -0.25439900000000
C           25.03432600000000        1.28603800000000        0.10707700000000
C           24.38467700000000        2.52952700000000        0.50452200000000
C           25.32739100000000        3.40536700000000        0.79467500000000
C           26.63311200000000        2.76459900000000        0.58736300000000
N           26.45394700000000        1.41604300000000        0.15429000000000
C           27.82828500000000        3.36010700000000        0.77363600000000
C           29.12360200000000        2.66864600000000        0.54581400000000
C           30.42037200000000        3.35528800000000        0.54671100000000
C           31.35355500000000        2.45232000000000        0.32964400000000
N           29.25647200000000        1.39439700000000        0.33386900000000
C           30.65992900000000        1.17731700000000        0.18635200000000
C           31.25151800000000       -0.01279400000000       -0.01263600000000
C           30.49295000000000       -1.27926900000000       -0.15374500000000
C           31.05013800000000       -2.48379400000000       -0.13743000000000
C           30.00290200000000       -3.44937700000000       -0.39740500000000
C           28.86873400000000       -2.77504500000000       -0.55220800000000
C           27.56678100000000       -3.39959500000000       -0.91084100000000
C           27.54171500000000       -4.84138900000000       -1.24540600000000
C           27.47523800000000       -5.25444100000000       -2.58366600000000
C           27.47059600000000       -6.62035000000000       -2.90317000000000
C           27.36481400000000       -7.06022100000000       -4.33349700000000
C           27.49840200000000       -7.57238800000000       -1.87221600000000
C           27.55546500000000       -7.16729600000000       -0.53037500000000
C           27.62221000000000       -8.19788300000000        0.55815600000000
C           27.58700300000000       -5.79890000000000       -0.22190400000000
C           26.41363600000000       -2.70519500000000       -0.92469900000000
C           25.09296600000000       -3.24563600000000       -1.24322100000000
C           24.23771200000000       -2.26113100000000       -1.05378300000000
C           25.00139500000000       -1.09319300000000       -0.61817800000000
N           26.27161400000000       -1.34018500000000       -0.53901000000000
N           29.08895300000000       -1.36983100000000       -0.40522500000000
C           27.87781700000000        4.77037200000000        1.21833600000000
C           27.56233400000000        5.80586300000000        0.32655600000000
C           27.60532000000000        7.14213900000000        0.74984400000000
C           27.28517500000000        8.25115400000000       -0.20869800000000
C           28.00595600000000        7.44024900000000        2.06087100000000
C           28.34698400000000        6.41169200000000        2.95191700000000
C           28.72931500000000        6.73246300000000        4.36657800000000
C           28.26586800000000        5.07680600000000        2.52989900000000
H           23.28705600000000        0.22218100000000       -0.27267800000000
H           23.32006200000000        2.71608000000000        0.56389900000000
H           25.14145800000000        4.41805200000000        1.12730400000000
H           30.60029600000000        4.41219800000000        0.69317500000000
H           32.41579300000000        2.64983400000000        0.27490300000000
H           32.09577700000000       -2.71525700000000        0.01275400000000
H           30.13846400000000       -4.51906300000000       -0.48384900000000
H           27.43115300000000       -4.51303300000000       -3.37347200000000
H           27.86731300000000       -8.03998300000000       -4.48105400000000
H           26.29449300000000       -7.15667600000000       -4.61102200000000
H           27.84933800000000       -6.32156600000000       -5.00762800000000
H           27.47726600000000       -8.62885200000000       -2.11371100000000
H           27.45364700000000       -7.74266300000000        1.55847300000000
H           26.84344100000000       -8.97281900000000        0.39467900000000
H           28.62138900000000       -8.68192200000000        0.54898000000000
H           27.64377000000000       -5.47518400000000        0.81151700000000
H           24.83911600000000       -4.24899100000000       -1.55831900000000
H           23.16611200000000       -2.32264400000000       -1.19095200000000
H           27.27830800000000        5.57035900000000       -0.69247800000000
H           26.79627200000000        9.09500800000000        0.32333400000000
H           26.59398400000000        7.89926600000000       -1.00364200000000
H           28.22245600000000        8.61482000000000       -0.67863400000000
H           28.05177200000000        8.47306500000000        2.38694900000000
H           27.81985400000000        6.73969300000000        5.00159100000000
H           29.21944400000000        7.72735000000000        4.42512800000000
H           29.44063800000000        5.97525600000000        4.76139000000000
H           28.50793100000000        4.27586200000000        3.21881200000000
Cu          61.08256800000000       -0.00513100000000       -0.00937600000000
C           64.44125600000000        0.16429900000000       -0.27010400000000
C           63.77693699999999       -0.48932200000000       -1.22681000000000
C           64.42658600000000       -1.21720000000000       -2.31051700000000
C           63.48387099999999       -1.73968600000000       -3.07097100000000
C           62.17815000000000       -1.36220200000000       -2.51323800000000
N           62.35731600000000       -0.57085800000000       -1.33853300000000
C           60.98297800000000       -1.70688100000000       -3.03335700000000
C           59.68766100000000       -1.29558600000000       -2.43264200000000
C           58.39089100000000       -1.48758400000000       -3.09189600000000
C           57.45770700000000       -1.02774300000000       -2.28504100000000
N           59.55479100000000       -0.73731400000000       -1.26775500000000
C           58.15133399999999       -0.53520000000000       -1.10031800000000
C           57.55974499999999       -0.01279400000000       -0.01263600000000
C           58.31831300000000        0.47527700000000        1.16450300000000
C           57.76112400000000        0.79490200000000        2.32596200000000
C           58.80836100000000        1.31338500000000        3.18101300000000
C           59.94252899999999        1.27436000000000        2.49024300000000
C           61.24448199999999        1.79267000000000        2.99027700000000
C           61.26954799999999        2.51535500000000        4.28195500000000
C           61.33602500000000        3.91569900000000        4.30615900000000
C           61.34066600000000        4.60279500000000        5.52914400000000
C           61.44644800000000        6.09903200000000        5.55347900000000
C           61.31286100000000        3.87760000000000        6.73053300000000
C           61.25579700000000        2.47603100000000        6.71497100000000
C           61.18905200000000        1.71740100000000        8.00783200000000
C           61.22425900000000        1.79884100000000        5.48652600000000
C           62.39762600000000        1.61268500000000        2.31946600000000
C           63.71829700000000        2.06905700000000        2.74988100000000
C           64.57355000000000        1.61305700000000        1.85702100000000
C           63.80986800000000        0.86955700000000        0.85650000000000
N           62.53964899999999        0.86227200000000        1.11576700000000
N           59.72231000000000        0.74202700000000        1.18148300000000
C           60.93344500000000       -2.52657000000000       -4.26409400000000
C           61.24892800000000       -1.95828000000000       -5.50689700000000
C           61.20594300000000       -2.73680700000000       -6.67253000000000
C           61.52608800000000       -2.12486000000000       -8.00453600000000
C           60.80530699999999       -4.07900000000000       -6.59391700000000
C           60.46427900000000       -4.64851600000000       -5.35797800000000
C           60.08194700000000       -6.09655500000000       -5.27228100000000
C           60.54539400000000       -3.87159500000000       -4.19332600000000
H           65.52420700000000        0.17156100000000       -0.31071000000000
H           65.49120000000001       -1.32616000000000       -2.47316800000000
H           63.66980500000000       -2.34106300000000       -3.95103900000000
H           58.21096600000000       -1.92246300000000       -4.06626200000000
H           56.39547000000000       -1.03014500000000       -2.48998600000000
H           56.71548500000000        0.71508500000000        2.59008200000000
H           58.67279799999999        1.69417400000000        4.18435800000000
H           61.38010900000000        4.46790800000000        3.37420200000000
H           60.94394999999999        6.51348700000000        6.45344300000000
H           62.51676900000000        6.39243800000000        5.56886900000000
H           60.96192499999999        6.54090500000000        4.65636500000000
H           61.33399700000000        4.40363100000000        7.67801900000000
H           61.35761500000000        0.62990500000000        7.84905500000000
H           61.96782199999999        2.09013000000000        8.70663300000000
H           60.18987400000000        1.86095300000000        8.47018600000000
H           61.16749200000000        0.71615500000000        5.46327200000000
H           63.97214699999999        2.65099800000000        3.62586700000000
H           65.64515000000000        1.76192700000000        1.87791900000000
H           61.53295399999999       -0.91396700000000       -5.56436300000000
H           62.01499000000000       -2.87076200000000       -8.66693800000000
H           62.21727900000000       -1.26338300000000       -7.88783900000000
H           60.58880700000000       -1.77472900000000       -8.48464100000000
H           60.75949100000000       -4.67968800000000       -7.49514300000000
H           60.99140900000000       -6.70848200000000       -5.10246100000000
H           59.59181899999999       -6.42973000000000       -6.21154800000000
H           59.37062500000000       -6.26498400000000       -4.43510100000000
H           60.30333199999999       -4.31032600000000       -3.23227000000000
C           37.26876200000000       -0.01169200000000       -0.00414600000000
C           36.05982300000000       -0.02514700000000       -0.01259300000000
C           34.63829400000000       -0.01632700000000       -0.02457600000000
C           33.42662400000000       -0.00888900000000       -0.01371300000000
C           38.68536600000000       -0.01836700000000       -0.00361300000000
C           39.90606200000000       -0.00888900000000       -0.01371300000000
C           52.75018799999999       -0.01169200000000       -0.00414600000000
C           51.54124900000000       -0.02514700000000       -0.01259300000000
C           50.11971999999999       -0.01632700000000       -0.02457600000000
C           48.90805100000000       -0.00888900000000       -0.01371300000000
C           54.16679300000000       -0.01836700000000       -0.00361300000000
C           55.38748900000000       -0.00888900000000       -0.01371300000000
Cu          44.30171700000000       -0.06634400000000       -0.02708400000000
C           40.93235500000000        0.02756200000000        0.02810500000000
C           41.58862400000000        1.19848300000000       -0.07056000000000
C           40.94865899999999        2.51552600000000       -0.08546100000000
C           41.88482100000000        3.42911400000000       -0.24704000000000
C           43.18126200000000        2.75068400000000       -0.34711300000000
N           43.00308100000000        1.33743900000000       -0.22600600000000
C           44.36531200000000        3.37060100000000       -0.53749800000000
C           45.66263400000000        2.64797900000000       -0.57268500000000
C           46.93160900000000        3.26516900000000       -0.97987900000000
C           47.88434600000000        2.36867600000000       -0.82508300000000
N           45.83059899999999        1.42037200000000       -0.19089500000000
C           47.22923400000000        1.16723200000000       -0.32415000000000
C           47.84416499999999        0.02756200000000        0.02810500000000
C           47.09298600000000       -1.15639100000000        0.49592700000000
C           47.62748500000000       -2.16880500000000        1.16675500000000
C           46.59507100000000       -3.17657100000000        1.31670600000000
C           45.50144200000000       -2.71196300000000        0.72310700000000
C           44.24846600000000       -3.48455900000000        0.54665700000000
C           44.31180000000000       -4.96412600000000        0.63265800000000
C           43.61412599999999       -5.64877200000000        1.63979400000000
C           43.68980400000000       -7.04587500000000        1.73219400000000
C           42.97972600000000       -7.76527700000000        2.84022300000000
C           44.49518600000000       -7.75634700000000        0.82944000000000
C           45.19039500000000       -7.08234300000000       -0.18545800000000
C           46.07494299999999       -7.84679800000000       -1.12529600000000
C           45.10752200000000       -5.68482100000000       -0.26999500000000
C           43.07656000000000       -2.87217300000000        0.29029900000000
C           41.80174899999999       -3.53203700000000        0.02801700000000
C           40.91348700000000       -2.56952400000000       -0.11488400000000
C           41.61005500000000       -1.28908900000000        0.04885900000000
N           42.87434700000000       -1.45907400000000        0.28271200000000
N           45.72547300000000       -1.41276900000000        0.17898400000000
C           44.39970900000000        4.84152000000000       -0.71049600000000
C           44.98708300000000        5.65030300000000        0.27316100000000
C           45.03553500000000        7.04252000000000        0.11137000000000
C           45.70729400000000        7.89763400000000        1.14493500000000
C           44.51679200000000        7.62158400000000       -1.05680600000000
C           43.91625799999999        6.82196100000000       -2.04093100000000
C           43.39440700000000        7.44461500000000       -3.30129800000000
C           43.87419199999999        5.43048600000000       -1.87050700000000
H           39.89465999999999        2.73515500000000        0.01927500000000
H           41.69952700000000        4.49484500000000       -0.28619900000000
H           47.08092000000000        4.27378700000000       -1.34244400000000
H           48.93395000000000        2.52386000000000       -1.03674200000000
H           48.65137499999999       -2.25195700000000        1.50631500000000
H           46.71155200000000       -4.14454100000000        1.78631300000000
H           43.02023300000000       -5.09220300000000        2.35551200000000
H           42.74086700000000       -8.80933800000000        2.54345600000000
H           43.62773200000000       -7.78440900000000        3.74120700000000
H           42.02683399999999       -7.25259200000000        3.09058900000000
H           44.58256000000000       -8.83320100000000        0.91697900000000
H           46.22378799999999       -7.28721800000000       -2.07398900000000
H           45.61798700000000       -8.82858400000000       -1.37420700000000
H           47.06296400000000       -8.01578300000000       -0.64706700000000
H           45.66070600000000       -5.15595500000000       -1.03731600000000
H           41.59912000000000       -4.59208200000000       -0.04886500000000
H           39.86406499999999       -2.72299900000000       -0.32693400000000
H           45.40790699999999        5.19396900000000        1.16182600000000
H           45.27389800000000        8.92044300000000        1.15121000000000
H           46.79200099999999        7.96561700000000        0.91923600000000
H           45.57395700000000        7.46300900000000        2.15835100000000
H           44.58018299999999        8.69382100000000       -1.20049500000000
H           42.96816400000000        8.44848400000000       -3.09090300000000
H           42.59322600000000        6.81813100000000       -3.74927100000000
H           44.22335699999999        7.54819800000000       -4.03256400000000
H           43.43850799999999        4.80347300000000       -2.64004500000000
215
 energy: -348.003870673980 gnorm: 0.431301719126 xtb: 6.5.1 (b24c23e)
Cu          27.73167314872364       -0.01558592798545       -0.02226357754223
C           24.37085916512531        0.17263306164050       -0.25844920803141
C           25.04009330441264        1.28793937692001        0.10794610441831
C           24.38345798422360        2.52490500335724        0.50292527006878
C           25.33426857499725        3.40754800765819        0.79526508182395
C           26.63098883384157        2.75930314730281        0.58617030923440
N           26.43968210987993        1.42917522226169        0.15944361940226
C           27.84003042893605        3.35721248709435        0.77230852535993
C           29.11807952976494        2.68047216179062        0.54917837447904
C           30.41113164331144        3.36234724016035        0.54904611547272
C           31.35446800654661        2.44722144362505        0.32869946983836
N           29.26729041516124        1.39142290494354        0.33247022401084
C           30.66909317093175        1.17514471362766        0.18560510594574
C           31.26623385085731       -0.02342404486117       -0.01261691040476
C           30.49377231787447       -1.26479017129810       -0.15584189870121
C           31.05201469699789       -2.50162464525581       -0.13961917703249
C           30.01982965259786       -3.45138176599677       -0.39551932994033
C           28.85857178869737       -2.76459336722712       -0.55433805455766
C           27.57765684523561       -3.39327910803683       -0.90786607802187
C           27.54518440056651       -4.84246483190124       -1.24535065305793
C           27.47545903998704       -5.25654157227830       -2.58110974751097
C           27.46903058882957       -6.61957203626561       -2.90018649551299
C           27.36608715880856       -7.06062633461367       -4.33515621093483
C           27.49866205084498       -7.56833506606281       -1.87140868503727
C           27.55609246100275       -7.16490912585532       -0.53205958101239
C           27.62138173336567       -8.19875745486921        0.55966443125493
C           27.58743369164375       -5.80008424600213       -0.22480354899761
C           26.41244971230223       -2.70364146058887       -0.92453014288603
C           25.09925966951564       -3.24655084177442       -1.24267449785313
C           24.23119677565849       -2.25265047273632       -1.05201325288292
C           24.98708788101860       -1.08598686121743       -0.61635250581298
N           26.27145479833199       -1.34872464903400       -0.54137434452959
N           29.09669986084207       -1.37458260273840       -0.40381020609227
C           27.88079715111301        4.77287704026872        1.21824974407370
C           27.56221707151222        5.80700419213613        0.32984698453192
C           27.60695476234014        7.14021888337687        0.75122148466819
C           27.28361618329135        8.25232028724638       -0.20942443244035
C           28.00574940039855        7.43651954349215        2.05973282478201
C           28.34472192197944        6.41118246680146        2.94982948054821
C           28.73113353587975        6.73285316673869        4.36781284770583
C           28.26614670320251        5.07962235145644        2.52791369591952
H           23.28747831520826        0.21969313732099       -0.27378108807628
H           23.32001469386470        2.71211827212913        0.56252171689706
H           25.14649568358791        4.41861696300942        1.12747018920976
H           30.59613383449362        4.41426927531279        0.69396542355947
H           32.41554337797005        2.64501458604218        0.27406875899991
H           32.09635850485952       -2.71798722372561        0.01278577388087
H           30.14084671297531       -4.51945863656069       -0.48292361505644
H           27.43161329038729       -4.51381217674557       -3.37246234279244
H           27.86421074821040       -8.03601531765250       -4.48074877188409
H           26.29966320233283       -7.15659231922492       -4.61099833347017
H           27.84627886427269       -6.32476290904438       -5.00515590043185
H           27.47744841010284       -8.62751410396609       -2.11345854849698
H           27.45493845706117       -7.74487565546785        1.55380033646628
H           26.84758521088792       -8.97038101758590        0.39578022552457
H           28.61645948332108       -8.68063818546982        0.54977763742528
H           27.64357688455554       -5.47564667861960        0.81031276428049
H           24.84399982991842       -4.24892738527430       -1.55796706208356
H           23.16434427575562       -2.31913373764648       -1.19024832570129
H           27.27847269307182        5.57044240043670       -0.69130853115738
H           26.79911903977870        9.09201577899960        0.32055135154383
H           26.59767065263670        7.90106528781573       -1.00078813136199
H           28.21763321051822        8.61409964717362       -0.67721784918718
H           28.05178451928614        8.47180659500998        2.38657542750412
H           27.82454318632160        6.73991979707413        4.99986736544965
H           29.21665301751743        7.72330603428565        4.42553723261606
H           29.43684355670636        5.97847579595811        4.76041837642044
H           28.50788479851077        4.27666713896534        3.21796135018878
Cu          61.07966543791307       -0.00284184707535       -0.01258442552464
C           64.44038086013259        0.17168006244953       -0.25917499183670
C           63.77117510744501       -0.49068514102855       -1.22843428912280
C           64.42782893899518       -1.21440169976545       -2.30655209385203
C           63.47703218032765       -1.74086334824445       -3.07292619046789
C           62.18032796215130       -1.35953913175314       -2.50845295219647
N           62.37168611858895       -0.57960196441543       -1.34983930898672
C           60.97117013863172       -1.70477664117662       -3.03092582013899
C           59.69317076310850       -1.30211379926465       -2.44308090587644
C           58.40007135977751       -1.49179668196429       -3.09806062570148
C           57.45672880411276       -1.02544880234827       -2.28049382385647
N           59.54380142019586       -0.73520813023533       -1.26532108094112
C           58.14205488253871       -0.53391420260208       -1.09851011552096
C           57.54561245965039       -0.00981990586254       -0.00234195014178
C           58.31741961956428        0.47332337399428        1.15013195614318
C           57.75918536614419        0.80199188126686        2.34259435858838
C           58.79137658411016        1.31213093745846        3.18348700233754
C           59.95262145493847        1.27348504478571        2.47956078396915
C           61.23362797231272        1.78804362700888        2.98501991342279
C           61.26607027643027        2.51559832612367        4.28299987580518
C           61.33580330306986        3.91382853778064        4.30888601332338
C           61.34223236696112        4.59971276081110        5.52922869565482
C           61.44517498765749        6.10073833231808        5.55340647134095
C           61.31260083794210        3.87569596110192        6.72686425465512
C           61.25517007689530        2.47698321685665        6.71221389300616
C           61.18988068659326        1.71619533470546        8.00909064379747
C           61.22382570984331        1.80195411227801        5.48685530955812
C           62.39884109683990        1.61209014504834        2.31803023183057
C           63.71205400146968        2.06879994783775        2.75093660444777
C           64.58009200725895        1.60902826691080        1.84941103275415
C           63.82416045977401        0.86582089985747        0.85013296037073
N           62.53994267930541        0.86704283966390        1.12337968021130
N           59.71442269063621        0.74210814724987        1.18649798327563
C           60.93044969976803       -2.52718019838347       -4.26652049387619
C           61.24904397015067       -1.96175731890759       -5.50707517122485
C           61.20430998226686       -2.73759471778618       -6.67030524838888
C           61.52764732615660       -2.12448692880919       -8.00585738408501
C           60.80551329016915       -4.07686852942091       -6.59065086946578
C           60.46654197541254       -4.64637084450106       -5.35807173711297
C           60.08012903621306       -6.09784967788863       -5.27231250536991
C           60.54511319039242       -3.87047224289548       -4.19658273441095
H           65.52377998503721        0.17330844837791       -0.30862648815047
H           65.49125733192271       -1.32373914251201       -2.46975518119825
H           63.66477417424890       -2.34138574961930       -3.95154350871779
H           58.21510526513217       -1.92380617027044       -4.06804056249101
H           56.39568956911206       -1.02800990660778       -2.48561796709426
H           56.71487011002966        0.71581496440071        2.59274807477904
H           58.67040233491203        1.69339046162198        4.18500472141886
H           61.37964916582461        4.46715576242387        3.37523001488874
H           60.94705255264840        6.51208856616713        6.44971653085724
H           62.51159843825018        6.39239148671793        5.56879532873069
H           60.96498411632994        6.53942104453678        4.66012324670305
H           61.33381428908118        4.40301529833136        7.67680232013422
H           61.35632338710829        0.63500934678742        7.84987917205421
H           61.96367679258840        2.08839413174330        8.70459634248430
H           60.19480469467808        1.85983031321907        8.46917338478927
H           61.16768563887396        0.71744000697395        5.46338103017933
H           63.96727398192984        2.65064922990947        3.62591408309714
H           65.64692954627215        1.76027909639671        1.87475358281304
H           61.53278923646003       -0.91511338231104       -5.56411707536727
H           62.01214220714711       -2.86725625135740       -8.66483739473308
H           62.21359191966926       -1.26662535010744       -7.88877240400759
H           60.59363020992501       -1.77588953426305       -8.48355382397936
H           60.75947845249068       -4.67897819146538       -7.49403701004378
H           60.98671949055126       -6.70688890325113       -5.10315886370449
H           59.59461034968780       -6.42899702314742       -6.20754973571841
H           59.37441917709582       -6.26494753435649       -4.43846335880075
H           60.30337857594131       -4.30973364789480       -3.23327887428887
C           37.26110951271713       -0.01213238320584       -0.00481972365340
C           36.03926844048259       -0.02478377126817       -0.01280356859704
C           34.63018269807306       -0.01643464511521       -0.02403870906251
C           33.39861162867917       -0.01065896832543       -0.01407824274354
C           38.61027442490676       -0.01951256595465       -0.00274768343022
C           39.78015132767248       -0.01818665923599       -0.01687417222336
C           52.76946369512752       -0.01189064316230       -0.00445380524634
C           51.54647399270901       -0.02518251798427       -0.01323159406546
C           50.18712312881490       -0.01849547320093       -0.02541750580316
C           49.00766832199771       -0.02176217324295       -0.01373263480220
C           54.17752163355297       -0.01794323144869       -0.00360593480476
C           55.41183599207798       -0.00860594678977       -0.01210866310285
Cu          44.30700118625537       -0.06390151500888       -0.02593437131273
C           41.04616468553008        0.01948952370964        0.02955593631066
C           41.63060661708774        1.21902396363112       -0.07059660693301
C           40.94964355691124        2.50725546823647       -0.08465513919451
C           41.89318954025130        3.43247833658986       -0.24833156849858
C           43.17979990610123        2.74908181398439       -0.34656298011092
N           42.99825522689626        1.35704007509812       -0.22788713739728
C           44.37691742006140        3.37006681327547       -0.53898600442391
C           45.65492072869566        2.66593803628896       -0.57517419452041
C           46.92053657995790        3.27452721533511       -0.98047205959166
C           47.88160136450458        2.36202326670519       -0.82245990076717
N           45.83039728912707        1.42291399856211       -0.19367607605470
C           47.19599300502688        1.18412992626278       -0.32949578246934
C           47.74536046368129        0.02129742523130        0.03352214230475
C           47.06225995561782       -1.15759189312518        0.49275547588619
C           47.62625831053740       -2.18483646386282        1.17270466555214
C           46.61120736239752       -3.17860078817881        1.32021704956871
C           45.49139771961546       -2.70843577072550        0.71425479732479
C           44.25853243611252       -3.48080077709862        0.54679502607288