201
 energy: -387.558646169199 gnorm: 0.000971135885 xtb: 6.5.1 (b24c23e)
Cu          30.82965018043011       -0.04553412658697        0.00364033455767
C           27.42436957119192       -0.13730050365808        0.02317220678053
C           28.05645290621115       -0.17610859182305        1.25663089903279
C           27.37789762979633       -0.21616824929710        2.52050742398264
C           28.33379182876546       -0.22257059577903        3.48191425910741
C           29.60649672330980       -0.19711175597852        2.81280179734262
N           29.40667349973756       -0.16165630453166        1.46300736888589
C           30.84948107578015       -0.17799676631333        3.44987015061725
C           32.08410304435671       -0.11588223216149        2.80071942670878
C           33.36021266114870       -0.15079331360130        3.45767639825519
C           34.30839631975027       -0.09419906644142        2.48864490430741
N           32.27532893072619       -0.05011525247691        1.44606407548241
C           33.61988586027540       -0.03135847964177        1.23442179714925
C           34.25853582871776        0.02614999145651       -0.01646528213919
C           33.60314041182654        0.06548710671933       -1.25939092231443
C           34.27496755959492        0.09742229468001       -2.52376742711103
C           33.31390909577563        0.12219860719456       -3.48148374697663
C           32.04671871457128        0.11253720701445       -2.80674215232296
C           30.80292997735149        0.11367887291589       -3.44140657608131
C           30.79070679226249        0.18925786051658       -4.92280483427414
C           30.25176007875815       -0.85404392057025       -5.68023605702871
C           30.23938687678950       -0.78027588886841       -7.06086336301646
C           30.76142385222152        0.34003601600172       -7.71031646958748
C           30.72118262629651        0.37483358121427       -9.19170692137683
O           31.24720897536051        1.49169211358440       -9.71732510234106
O           30.26510230058047       -0.50182780775617       -9.88091114404199
C           31.29981202910631        1.38494224041207       -6.95871056310823
C           31.31538094725099        1.30662001058580       -5.57705369116897
C           29.56854997226522        0.04873554449679       -2.79057400941200
C           28.28670281249483        0.09036794373630       -3.44110456218891
C           27.34410191019276        0.01419076032500       -2.46962221499441
C           28.04003557280971       -0.06333240541211       -1.21702260072572
N           29.38739202414387       -0.03535904732404       -1.44021401024815
N           32.25600061185013        0.06910878506208       -1.45382209525884
C           30.85803020506885       -0.22883402211809        4.93242083602909
C           30.34272984259743       -1.34000338522586        5.60504730195490
C           30.35045789402317       -1.38452257107443        6.98700990558410
C           30.86939494978801       -0.31711425742520        7.72252205202964
C           30.85138112510455       -0.41018626322230        9.20190888889363
O           31.37499755892696        0.66278867352807        9.81430759469701
O           30.41380774617932       -1.34791796004290        9.81899455149720
C           31.38396008000026        0.79533225148499        7.05571715841584
C           31.37936623053634        0.83558871298773        5.67238312991858
H           26.33945275035509       -0.15416186397040        0.02939800080242
H           26.30626119815869       -0.22951907089132        2.64193755393335
H           28.19649965151143       -0.23153100934433        4.55115972801544
H           33.50787830278743       -0.22405619260622        4.52293173989423
H           35.38054545006555       -0.10020380305689        2.60280421431264
H           35.34553719935706        0.09452897169002       -2.65203055284999
H           33.44748518627083        0.13152880227088       -4.55108209137830
H           29.85689278677836       -1.72995263766367       -5.17813516302281
H           29.82681877528269       -1.58831173379576       -7.65499023372973
H           31.18259595545210        1.43594729873661      -10.68451255350449
H           31.70336166657589        2.25759566063238       -7.45848244444013
H           31.72245498587604        2.12410585039352       -4.99265798899142
H           28.13470253938458        0.17924824854186       -4.50469950031329
H           26.27083844100247        0.01696503698372       -2.57636536159054
H           29.95013887037771       -2.17496619041510        5.03541479583827
H           29.95602301610728       -2.24561807246139        7.51544420488937
H           31.32534969804793        0.52387765412543       10.77401350004214
H           31.78578860816413        1.62708835313885        7.62290449913852
H           31.76823143198056        1.70510916333362        5.15412731750771
Cu          68.04919991344453       -0.03564056494216       -0.03921347881362
C           71.45411710007586       -0.13014087748893       -0.07058614364625
C           70.82143810276287       -0.02470652039496       -1.29982924083349
C           71.49967397638795        0.08085390268620       -2.56010100938492
C           70.54358756474532        0.18638542022829       -3.51550440444606
C           69.27100185091960        0.13600399588010       -2.84752542066923
N           69.47115461636807        0.01506012767993       -1.50269799293104
C           68.02807454286749        0.23109202132060       -3.47788851958965
C           66.79359819265576        0.22203256413070       -2.82534483871940
C           65.51715680712201        0.26770009153994       -3.48105019749892
C           64.56945865870637        0.21577954829875       -2.51125987073239
N           66.60296669824773        0.13171542599145       -1.47210242822718
C           65.25860372113287        0.13058437785015       -1.25869943838907
C           64.62064021163268        0.04348360798203       -0.00923565472425
C           65.27647770991031       -0.06519374892187        1.22932511547826
C           64.60496374464650       -0.17960870779313        2.48905302574908
C           65.56622190061492       -0.27047507403966        3.44253649011964
C           66.83328943694876       -0.20456840368866        2.77070849135552
C           68.07700249441555       -0.28121625105774        3.40096212522537
C           68.08924495706502       -0.37963816781848        4.88096604838109
C           68.62709769777923       -1.50492486319509        5.51110601890899
C           68.64042804735678       -1.59275456426214        6.89092646257314
C           68.12019601328906       -0.55528748165410        7.66704817321846
C           68.16269659006406       -0.69297462754150        9.14245184164825
O           67.63895688661847        0.35586354694955        9.79499849931777
O           68.61983745978320       -1.64374423646938        9.72425953658336
C           67.58218455550013        0.57058270632463        7.04286625460902
C           67.56586156443696        0.65412733817938        5.66154837598608
C           69.31123594438203       -0.27214749551506        2.74667835330277
C           70.59333948592807       -0.30938986185037        3.39699788698497
C           71.53559335018295       -0.27213392462435        2.42289615194816
C           70.83919288311752       -0.20094869909553        1.17017511249103
N           69.49197985066246       -0.19736820165224        1.39569603046116
N           66.62371079494524       -0.08837861724546        1.42214278097543
C           68.01935544467196        0.35083913671107       -4.95639874814271
C           68.53386806211965       -0.67601384844945       -5.75238886999131
C           68.52590634893048       -0.56159887472209       -7.13033001925714
C           68.00746469523401        0.58347457146894       -7.73831875358738
C           68.02551002697585        0.66125315395442       -9.21850636846381
O           67.50468866325491        1.79901675964463       -9.70334637277477
O           68.46044392696795       -0.20041657158190       -9.93962243562227
C           67.49361894604367        1.61222997195297       -6.94801374273810
C           67.49855723239476        1.49344316534851       -5.56921695287413
H           72.53902906339520       -0.14719308152523       -0.07950369330639
H           72.57127352363693        0.08056290515925       -2.68258243901101
H           70.68063175569945        0.30087965438577       -4.57866791776129
H           65.36866926584840        0.31824538477516       -4.54750955953711
H           63.49723840384490        0.22706464188917       -2.62438728532909
H           63.53444908870425       -0.19406326551150        2.61685054809605
H           65.43280052894990       -0.38651361530039        4.50586745054354
H           69.02050712202821       -2.31679188462529        4.90998040886395
H           69.05240345419867       -2.46508733738662        7.38637785590628
H           67.70582877008829        0.18877536064181       10.74912110342156
H           67.17961621826939        1.37922817149313        7.64133477226120
H           67.15944562801064        1.53473315621150        5.17691006195277
H           70.74587072058047       -0.34652165514994        4.46358239255901
H           72.60888104792588       -0.28355147367850        2.52887740467745
H           68.92587332923711       -1.57113984030052       -5.28255574047000
H           68.91973553228516       -1.35653578189490       -7.75420465750099
H           67.55454694419431        1.77166823104663      -10.67265120372391
H           67.09225143007957        2.50378177407901       -7.41576061905995
H           67.11057082812951        2.29813688816647       -4.95462915166001
C           35.66486982127920        0.03480762837329       -0.02501828855168
C           36.88894084949825        0.03937333463044       -0.03039211012960
C           38.23236480488328        0.03956489104487       -0.03570296094071
C           39.46260457899930        0.03438231654738       -0.04022969441124
C           40.80116901332777        0.02763281556053       -0.04044519432070
C           42.03136433508809        0.01336231408210       -0.04352066647513
C           43.37456606094138        0.00654756831682       -0.03854716538611
C           44.59881357873866       -0.00151241984323       -0.03146013745088
C           54.28032285429468        0.02655271947037        0.00831324800976
C           55.50457815458488        0.03438609084107        0.01541609455550
C           56.84776229688878        0.04445710556253        0.01891553177693
C           58.07800149727576        0.05373670208270        0.01936779365407
C           59.41655522110914        0.06069516165666        0.01830776766054
C           60.64679029032461        0.06382129579431        0.01509286481435
C           61.99023753825404        0.06170985488627        0.00757995830197
C           63.21427692543119        0.05454381418803        0.00182270303373
Cu          49.43960473276501        0.01033680823235       -0.01325465601474
C           46.00455147744474        0.00062449556123       -0.02607676170005
C           46.65580747224210       -1.24525142781786        0.00202866281842
C           45.98153643406916       -2.50856687043677       -0.01936025341444
C           46.93983880273905       -3.46843416755306        0.02812188763433
C           48.20646691295515       -2.79541261378442        0.08825005921809
N           48.00074652121991       -1.44207175984465        0.06192455307095
C           49.44886238327665       -3.43096031442454        0.14380518911362
C           50.68797410403945       -2.78655197305389        0.14207533868917
C           51.95792224329032       -3.44432868680684        0.26595773382086
C           52.91111741581180       -2.47893659350150        0.22735184559087
N           50.88661783050664       -1.43546892345871        0.04435404516082
C           52.23032603365930       -1.22660804753534        0.08840838645312
C           52.87463485243854        0.02022364168369        0.00095124047698
C           52.22324379817097        1.26302408511359       -0.09375940651412
C           52.89801381867161        2.51895238047175       -0.22929159739711
C           51.93970973073625        3.47880716150595       -0.27789828149912
C           50.67270155366155        2.81394379640790       -0.16268411918434
C           49.43024812007912        3.45166274112564       -0.17219254331635
C           49.42617034009881        4.93341909214681       -0.23977771283719
C           50.00573204993422        5.68977726550663        0.78224586936475
C           49.99791223400626        7.07102025701700        0.71896548488018
C           49.41576605335428        7.72208954493425       -0.37034137619321
C           49.43565389710569        9.20409765203358       -0.39561555514227
O           48.85095835978553        9.73039054763552       -1.48268420993165
O           49.92215613199263        9.89292091178541        0.46482491115685
C           48.83804834103361        6.97137184660986       -1.39477125056180
C           48.84192372484416        5.58919681560362       -1.32634540079494
C           48.19107522008350        2.80938025857547       -0.12315729286337
C           46.92054707606503        3.47526948136441       -0.06853451067256
C           45.96740086070238        2.50995178094066       -0.02790678069412
C           46.64884818595134        1.25046331103612       -0.04786116467837
N           47.99287110886098        1.45497277181395       -0.09968855899897
N           50.87806681548001        1.46408873135034       -0.06165646216828
C           49.45282672526329       -4.91291791745124        0.21038761020179
C           48.86897895822505       -5.57410512382077        1.29415152150138
C           48.87588431158092       -6.95545571246439        1.35516117909876
C           49.46113455092831       -7.70211271858869        0.33075900233914
C           49.44012217357947       -9.18044767640906        0.43905117335416
O           50.02248283078280       -9.80308705855068       -0.59700329443270
O           48.95301002529486       -9.78857806574903        1.35797760376935
C           50.04320741716257       -7.04683363271846       -0.75484971210233
C           50.04055139034747       -5.66402905224989       -0.81061840820692
H           44.91200482552180       -2.63461110508593       -0.07199179443366
H           46.80539441163825       -4.53780620168418        0.01052408384521
H           52.09809213905018       -4.50679168130033        0.38211330030479
H           53.98111930806458       -2.59389885288797        0.29413594143953
H           53.96782533949457        2.64015792198212       -0.28712421274193
H           52.07483334881700        4.54176740481432       -0.39533966796911
H           50.44813317289901        5.18618485303843        1.63426320936234
H           50.44108833403842        7.66393705057438        1.51149812473869
H           48.90540970494062       10.69795260665677       -1.42310018699888
H           48.38796707022649        7.47239084258766       -2.24360662806736
H           48.40312719422719        5.00589898559245       -2.12800122006600
H           46.77971778244552        4.54379565314248       -0.04945724976665
H           44.89700162700394        2.63024322932729        0.02003499224966
H           48.42388861385048       -4.99591868346393        2.09594232452129
H           48.42965026113409       -7.47475907101477        2.19620336028372
H           49.96666145879622      -10.76132996102902       -0.45056065603627
H           50.49574642636596       -7.62230899895563       -1.55375210981219
H           50.48290446611307       -5.15525398259845       -1.65972632794101
