201
 energy: -386.478418752237 gnorm: 1.511229590274 xtb: 6.5.1 (b24c23e)
Cu          30.11848100000000        0.01260100000000        0.00082200000000
C           26.70045700000000       -0.09441400000000        0.09004200000000
C           27.36574900000000       -0.19600800000000        1.24417500000000
C           26.71788700000000       -0.33853700000000        2.54275900000000
C           27.66001200000000       -0.35955200000000        3.46720300000000
C           28.96305000000000       -0.22930200000000        2.80138000000000
N           28.78357100000000       -0.13063900000000        1.38831300000000
C           30.15220700000000       -0.15837100000000        3.43250600000000
C           31.44369200000000        0.00129900000000        2.71492300000000
C           32.73041800000000        0.21812100000000        3.38742900000000
C           33.66490300000000        0.27573400000000        2.46065500000000
N           31.58622799999999       -0.07722900000000        1.42712500000000
C           32.98335200000000        0.08862500000000        1.18552700000000
C           33.57967800000000        0.00815500000000       -0.01538800000000
C           32.82194000000000       -0.20189600000000       -1.27010200000000
C           33.36504700000000       -0.61450300000000       -2.40856400000000
C           32.32124900000000       -0.60278900000000       -3.41414400000000
C           31.20907700000000       -0.17966500000000       -2.82474200000000
C           29.92108000000000        0.04332800000000       -3.53091000000000
C           29.93886600000000        0.17926900000000       -5.00789900000000
C           29.29572300000000       -0.76774500000000       -5.81889800000000
C           29.33118400000000       -0.64532500000000       -7.21070900000000
C           30.01750200000000        0.42329100000000       -7.81521100000000
C           30.05855300000000        0.55733500000000       -9.28804700000000
O           30.74255100000000        1.61745600000000       -9.87763800000000
O           29.47542800000000       -0.28542800000000      -10.02263200000000
C           30.66864700000000        1.36411900000000       -6.99867400000000
C           30.63166500000000        1.24085400000000       -5.60686700000000
C           28.75456200000000        0.12657800000000       -2.86277600000000
C           27.43892800000000        0.37880500000000       -3.44840900000000
C           26.57748399999999        0.32960400000000       -2.45101500000000
C           27.33366300000000        0.05974000000000       -1.22940700000000
N           28.60364300000000       -0.05995400000000       -1.45698100000000
N           31.43472800000000        0.09228900000000       -1.44014700000000
C           30.19195600000000       -0.23005000000000        4.90834100000000
C           30.12773300000000       -1.47102300000000        5.55539400000000
C           30.16704900000000       -1.53949500000000        6.95091200000000
C           30.27241500000000       -0.36580200000000        7.71967100000000
C           30.31495600000000       -0.43257100000000        9.19701500000000
O           30.41814000000000        0.73449600000000        9.94971900000000
O           30.25838000000000       -1.54491300000000        9.78804400000000
C           30.33726000000000        0.87597300000000        7.06327400000000
C           30.29722400000000        0.94261300000000        5.66765400000000
H           25.61721000000000       -0.11304000000000        0.11821900000000
H           25.65444700000000       -0.40676600000000        2.73297700000000
H           27.47590300000000       -0.44635000000000        4.53028000000000
H           32.90541300000000        0.31096900000000        4.45110400000000
H           34.72124400000000        0.42095000000000        2.64359100000000
H           34.39845600000000       -0.88960000000000       -2.57143100000000
H           32.43810100000000       -0.86866100000000       -4.45678400000000
H           28.76995200000000       -1.60274400000000       -5.37208200000000
H           28.82388100000000       -1.38881300000000       -7.81268900000000
H           30.77679400000000        1.71861500000000      -10.88503600000000
H           31.20807200000000        2.19587200000000       -7.43391900000000
H           31.14075700000000        1.97515500000000       -4.99445900000000
H           27.19193900000000        0.57280900000000       -4.48384800000000
H           25.50820500000000        0.47271600000000       -2.53530900000000
H           30.04704600000000       -2.38407700000000        4.97824100000000
H           30.11533000000000       -2.51059800000000        7.42711400000000
H           30.44806400000000        0.70003700000000       10.96173900000000
H           30.41906200000000        1.79678700000000        7.62684800000000
H           30.34854100000000        1.90728000000000        5.17766400000000
Cu          68.75153600000000        0.01444000000000       -0.03097700000000
C           72.16955999999999       -0.08157300000000       -0.13194200000000
C           71.50426800000000       -0.04940400000000       -1.29009100000000
C           72.15213000000000       -0.04124000000000       -2.59644900000000
C           71.21000500000000        0.04448400000000       -3.51714900000000
C           69.90696699999999        0.09708800000000       -2.84074800000000
N           70.08644600000000        0.03215000000000       -1.42573000000000
C           68.71781000000000        0.24032100000000       -3.45948500000000
C           67.42632500000001        0.31618100000000       -2.72827700000000
C           66.13959900000000        0.60910400000000       -3.37129400000000
C           65.20511399999999        0.55946600000000       -2.44405900000000
N           67.28378900000000        0.08967900000000       -1.45812400000000
C           65.88666600000001        0.22656800000000       -1.19901300000000
C           65.29033900000000        0.00815500000000       -0.01538800000000
C           66.04807700000001       -0.34517800000000        1.20673500000000
C           65.50497000000000       -0.88631000000000        2.29002400000000
C           66.54876800000000       -0.99062900000000        3.29024800000000
C           67.66094000000000       -0.50236300000000        2.75356800000000
C           68.94893700000000       -0.36228700000000        3.48073900000000
C           68.93115100000000       -0.39756600000000        4.96355100000000
C           69.57429399999999       -1.43178100000000        5.65993900000000
C           69.53883300000000       -1.47066900000000        7.05658200000000
C           68.85251500000000       -0.47888800000000        7.78027500000000
C           68.81146400000000       -0.51557300000000        9.25874400000000
O           68.12746599999998        0.46949000000000        9.96664500000000
O           69.39458900000000       -1.43742000000000        9.89124800000000
C           68.20137099999999        0.54982000000000        7.07767300000000
C           68.23835200000001        0.58786900000000        5.68093700000000
C           70.11545500000000       -0.20254900000000        2.82666100000000
C           71.43108900000000       -0.01953500000000        3.43747300000000
C           72.29253300000001        0.04660400000000        2.44105900000000
C           71.53635400000000       -0.08059500000000        1.19648100000000
N           70.26637400000000       -0.22573200000000        1.40873500000000
N           67.43528900000000       -0.07256400000000        1.40956800000000
C           68.67806099999999        0.33930200000000       -4.93374100000000
C           68.74228400000000       -0.81878100000000       -5.71957600000000
C           68.70296799999998       -0.72587600000000       -7.11368000000000
C           68.59760199999999        0.52863400000000       -7.74197100000000
C           68.55506099999998        0.63266500000000       -9.21715900000000
O           68.45187700000000        1.87874200000000       -9.83026600000000
O           68.61163700000000       -0.40410400000000       -9.93251200000000
C           68.53275700000000        1.68643500000000       -6.94676100000000
C           68.57279300000000        1.59170000000000       -5.55276700000000
H           73.25280699999999       -0.09682500000000       -0.16207900000000
H           73.21556999999999       -0.08708000000000       -2.79326500000000
H           71.39411399999999        0.08085000000000       -4.58314300000000
H           65.96460399999999        0.82398800000000       -4.41716800000000
H           64.14877300000001        0.72480700000000       -2.60903000000000
H           64.47156099999999       -1.17835200000000        2.42008300000000
H           66.43191600000000       -1.37495700000000        4.29527500000000
H           70.10006500000000       -2.20968700000000        5.11981800000000
H           70.04613600000000       -2.27861300000000        7.56881400000000
H           68.09322299999999        0.45381000000000       10.97898800000000
H           67.66194500000000        1.32583600000000        7.60592600000000
H           67.72926000000000        1.38789000000000        5.15728800000000
H           71.67807800000000        0.05377800000000        4.48837600000000
H           73.36181200000000        0.17904100000000        2.54129200000000
H           68.82297099999998       -1.79229700000000       -5.25155800000000
H           68.75468699999999       -1.63559000000000       -7.69868500000000
H           68.42195299999999        1.96121100000000      -10.83950900000000
H           68.45095499999998        2.66609400000000       -7.40039600000000
H           68.52147600000001        2.49343000000000       -4.95480800000000
C           35.88842400000000        0.02335600000000       -0.00475500000000
C           37.34664999999999        0.00152000000000       -0.02262800000000
C           38.48057800000000       -0.01923400000000       -0.02411900000000
C           39.84196000000000       -0.03182400000000       -0.02631000000000
C           41.11617900000000       -0.02151700000000       -0.03107500000000
C           42.30464100000000       -0.00271900000000       -0.03723100000000
C           43.65700200000000        0.02206500000000       -0.02136300000000
C           44.75726899999999        0.02335600000000       -0.00475500000000
C           53.98439699999999        0.02335600000000       -0.00475500000000
C           55.44262300000000        0.00152000000000       -0.02262800000000
C           56.57655099999999       -0.01923400000000       -0.02411900000000
C           57.93793299999999       -0.03182400000000       -0.02631000000000
C           59.21215200000000       -0.02151700000000       -0.03107500000000
C           60.40061399999999       -0.00271900000000       -0.03723100000000
C           61.75297500000000        0.02206500000000       -0.02136300000000
C           62.85324200000000        0.02335600000000       -0.00475500000000
Cu          49.42306399999999        0.00751200000000       -0.03755900000000
C           45.97061200000000       -0.02270400000000        0.03252800000000
C           46.62570700000000       -1.19839400000000        0.02393800000000
C           45.98507400000000       -2.51057300000000       -0.08332700000000
C           46.92224900000000       -3.43596800000000       -0.02633600000000
C           48.21921800000000       -2.77122200000000        0.12977700000000
N           48.04088100000000       -1.35272500000000        0.15303800000000
C           49.40427700000000       -3.40673200000000        0.24878700000000
C           50.69868099999999       -2.68902500000000        0.36843900000000
C           51.96291999999999       -3.33715600000000        0.74421600000000
C           52.91557900000000       -2.42678500000000        0.69075300000000
N           50.86898299999999       -1.43165400000000        0.10014000000000
C           52.26508599999999       -1.18802200000000        0.28251400000000
C           52.88276299999999       -0.02270400000000        0.03252800000000
C           52.13307800000000        1.19046400000000       -0.35371500000000
C           52.66623600000000        2.24258500000000       -0.96217000000000
C           51.63298100000000        3.25855700000000       -1.04469700000000
C           50.54115800000000        2.75694100000000       -0.47747100000000
C           49.28755399999999        3.51474000000000       -0.25118000000000
C           49.34498900000000        4.99643200000000       -0.25866900000000
C           50.12047299999999        5.67437500000000        0.69099200000000
C           50.19521100000000        7.06948500000000        0.67286700000000
C           49.50246700000000        7.80942200000000       -0.30306800000000
C           49.57429900000000        9.28636700000000       -0.32373800000000
O           48.94190500000000       10.00809200000000       -1.33642400000000
O           50.20060900000000        9.90579900000000        0.57877700000000
C           48.73747600000000        7.12474600000000       -1.26219800000000
C           48.66116000000000        5.72957500000000       -1.24075200000000
C           48.11838000000000        2.88610300000000       -0.02589500000000
C           46.84424299999999        3.52847400000000        0.27936800000000
C           45.95486600000000        2.55927300000000        0.35805600000000
C           46.65037100000000        1.29117800000000        0.10940200000000
N           47.91529700000000        1.47533400000000       -0.11204000000000
N           50.76690100000000        1.42655600000000       -0.01494000000000
C           49.44578900000000       -4.88714200000000        0.25478000000000
C           48.93332600000000       -5.60971100000000        1.34371900000000
C           48.99347000000000       -7.00644700000000        1.35347800000000
C           49.57212500000000       -7.70260800000000        0.27569700000000
C           49.64170500000000       -9.18081600000000        0.28206700000000
O           50.21223000000000       -9.86087400000000       -0.79084600000000
O           49.18674799999999       -9.83818800000000        1.25680000000000
C           50.08861599999999       -6.97273800000000       -0.81051500000000
C           50.02769800000000       -5.57634700000000       -0.81903300000000
H           44.93039599999999       -2.71887500000000       -0.19999600000000
H           46.73670299999999       -4.50011300000000       -0.09331900000000
H           52.10949699999999       -4.37379200000000        1.01818400000000
H           53.96230100000000       -2.59630900000000        0.91171000000000
H           53.68828400000000        2.34394200000000       -1.30230500000000
H           51.74712700000000        4.25440800000000       -1.45371700000000
H           50.66300500000000        5.12152000000000        1.44810900000000
H           50.79785700000000        7.56779500000000        1.41998600000000
H           48.98362200000000       11.01963100000000       -1.35872000000000
H           48.19553800000000        7.66594100000000       -2.02971200000000
H           48.07325100000000        5.21886900000000       -1.99393600000000
H           46.64252500000000        4.58181500000000        0.42526900000000
H           44.90475600000000        2.70054700000000        0.57733000000000
H           48.48911400000000       -5.09030900000000        2.18517700000000
H           48.58953900000000       -7.54070100000000        2.20540300000000
H           50.26421200000000      -10.87300500000000       -0.79638700000000
H           50.54202500000000       -7.47936500000000       -1.65423700000000
H           50.43247399999999       -5.03081100000000       -1.66373400000000
201
 energy: -386.957604164359 gnorm: 0.601528345252 xtb: 6.5.1 (b24c23e)
Cu          30.11717935050221        0.01000923767773       -0.00024527438755
C           26.70151119898016       -0.09292979051809        0.07665117963301
C           27.37161914396625       -0.19587937478899        1.24595436859354
C           26.71690106270764       -0.33810673366841        2.53778840853202
C           27.66709916593944       -0.35938243661525        3.46933395678916
C           28.96093112671112       -0.22940578743949        2.79535781969109
N           28.76902907261152       -0.13191537265565        1.40354447629938
C           30.16483488154421       -0.15689282410674        3.42859082597180
C           31.43869987873484        0.00078295108342        2.72883809424831
C           32.72056493687475        0.21686777575151        3.39534103267404
C           33.66570814090420        0.27550416056419        2.45518606186984
N           31.59721287375868       -0.07517807088209        1.42438245505918
C           32.99444827569227        0.08937484746662        1.18271787595100
C           33.58669360705939        0.00475397360993       -0.02676045710965
C           32.82277905972526       -0.19425292953864       -1.25758369518849
C           33.36725493748035       -0.61842801703791       -2.42762258146482
C           32.33959862152585       -0.60571222637266       -3.41550622510702
C           31.19985376443482       -0.17223143364504       -2.81472299546417
C           29.93194716324945        0.04268781080251       -3.52441645469430
C           29.94341274500393        0.17718092188465       -5.00698855814162
C           29.29697793828736       -0.76413873752056       -5.82185955584451
C           29.33336854571530       -0.64162187817502       -7.21029410176594
C           30.02028944121864        0.42764742622529       -7.81809117221088
C           30.05455491053743        0.55185625470601       -9.30404373168799
O           30.73838633994227        1.61095086982770       -9.87112302425135
O           29.48383097141124       -0.27301224949951      -10.01539590130485
C           30.66768666069790        1.36313583481680       -6.99657852950829
C           30.63132840707134        1.23872991384357       -5.60955622403879
C           28.75312586226117        0.12696145271593       -2.86127349410452
C           27.44502970818522        0.37771700712456       -3.44898183997710
C           26.57048446918668        0.32901065054515       -2.44200635173346
C           27.31927459624671        0.05883586507916       -1.22201320829557
N           28.60460871340280       -0.05667380646629       -1.46555086645928
N           31.44255375654816        0.09099931027324       -1.44392148784083
C           30.19468604757500       -0.22968322844651        4.91044292945875
C           30.12772716257122       -1.46806686495574        5.55986740055685
C           30.16715634795651       -1.53530608895937        6.95161633932238
C           30.27284981922575       -0.36108675030763        7.72324063291390
C           30.31489154489435       -0.44146337205951        9.21190817621675
O           30.41742257187959        0.72779328970462        9.94225587484855
O           30.25924120545583       -1.52910319825338        9.78290457086293
C           30.33707514930826        0.87498551477572        7.06160584220558
C           30.29784042314099        0.94032530242482        5.67091682517340
H           25.61779041579429       -0.11235396841653        0.11516909236237
H           25.65453912232105       -0.40652678738305        2.72823327269990
H           27.48165084095924       -0.44619890453421        4.53075748672389
H           32.90062082246163        0.31048247229929        4.45371882441495
H           34.72100511498758        0.42058495557625        2.63778571403536
H           34.39909101585560       -0.89079710560272       -2.57469979931681
H           32.44112504955476       -0.86983341613345       -4.45663518303115
H           28.77095355433138       -1.60135236319787       -5.37268849723101
H           28.82510624824085       -1.38701807204561       -7.81387302634768
H           30.77055703134362        1.70830669719387      -10.86740545858826
H           31.20749873912896        2.19514367184923       -7.43453747069112
H           31.14013442813864        1.97411426158340       -4.99476237899599
H           27.19741265948051        0.57217016769378       -4.48356096863411
H           25.50609224773464        0.47223911046919       -2.53124297377535
H           30.04728223268258       -2.38241632585352        4.97921622197273
H           30.11554998493230       -2.50868184047539        7.42877320741206
H           30.44682583589490        0.69051406588419       10.94266703513072
H           30.41894683582166        1.79585811152798        7.62755909028036
H           30.34846542304355        1.90595977797887        5.17794485915414
Cu          68.75278029617220        0.01149706088315       -0.03022107758841
C           72.16853902249244       -0.08164081386492       -0.11841247413880
C           71.49835221097922       -0.04912291305372       -1.29177214832310
C           72.15305469532586       -0.04140707901246       -2.59137665689782
C           71.20284041077278        0.04487243756197       -3.51920231885764
C           69.90897835628948        0.09626517044819       -2.83488854580011
N           70.10076428936824        0.03294272747498       -1.44068266702100
C           68.70536986764830        0.24133511618141       -3.45556304121459
C           67.43144335151591        0.31726196664936       -2.74223560630488
C           66.14954721738404        0.60868786293779       -3.37923247391056
C           65.20452694156600        0.55855267440436       -2.43830724695214
N           67.27380255491136        0.09142913500799       -1.45551443785409
C           65.87676502378751        0.22701555565063       -1.19582154097554
C           65.28745499860584        0.00370146730533       -0.00442659204094
C           66.04847211772746       -0.33615919727085        1.19491271661380
C           65.50301685079098       -0.89222341626580        2.30821493440621
C           66.53052839427568       -0.99366209706931        3.29125377898124
C           67.67041025197847       -0.49389772596403        2.74465195027058
C           68.93804993425864       -0.36217919143787        3.47430745465167
C           68.92662572259070       -0.39953139888700        4.96243282831285
C           69.57304230697797       -1.42854297965926        5.66330706497896
C           69.53664790500150       -1.46694553489198        7.05660072294234
C           68.84972681029960       -0.47489171586685        7.78364153555129
C           68.81545600941737       -0.52285696736760        9.27399990846749
O           68.13163788474689        0.46377707750707        9.95942247210731
O           69.38619335113992       -1.42425684096159        9.88549405753433
C           68.20232883124730        0.54908583232067        7.07547837656385
C           68.23869069834269        0.58545003933166        5.68336786166761
C           70.11683840165307       -0.20197601234483        2.82519118277105
C           71.42489233229354       -0.02066241999402        3.43785132411241
C           72.29948805470322        0.04700441195638        2.43193890648457
C           71.55077848903795       -0.08061923058441        1.18892041902798
N           70.26512232152493       -0.22340302155054        1.41740245159289
N           67.42824593630087       -0.07442673390023        1.41322580047336
C           68.67537645985544        0.33991612807870       -4.93580707941198
C           68.74228886090292       -0.81532873356984       -5.72369073212503
C           68.70285748491793       -0.72163985363346       -7.11389585836082
C           68.59716672134093        0.53373117677601       -7.74498435147918
C           68.55513348858801        0.62554826092567       -9.23294542165079
O           68.45258776350333        1.87123115596646       -9.82363565314880
O           68.61076720468868       -0.38900292381551       -9.92560494320121
C           68.53293647269304        1.68526882677506       -6.94521472214435
C           68.57217511424852        1.58980825275213       -5.55628401689210
H           73.25223306443247       -0.09648260644541       -0.15896566168014
H           73.21545140194094       -0.08739458785534       -2.78850003005573
H           71.38835281045387        0.08104967321803       -4.58357866741530
H           65.96943011489921        0.82380910895298       -4.41980485134589
H           64.14920688474548        0.72380342627037       -2.60338918479748
H           64.47109141369465       -1.17988055875660        2.42314618346375
H           66.42890334700655       -1.37607595819919        4.29500053963284
H           70.09906428907055       -2.20837587239306        5.12058190089164
H           70.04491099690991       -2.27696788114472        7.57019886361558
H           68.09945470201342        0.44560484899885       10.96028578474477
H           67.66251762976775        1.32504085349326        7.60645646333290
H           67.72988260916844        1.38681809808037        5.15746854757538
H           71.67258286756740        0.05317002349336        4.48798717316241
H           73.36390078502141        0.17903529529448        2.53717348831874
H           68.82273686574881       -1.79053397869800       -5.25233652803445
H           68.75446821382432       -1.63349749498970       -7.70011302918637
H           68.42319630011139        1.94955176601670      -10.82166064268739
H           68.45107076809016        2.66525555794909       -7.40121051841648
H           68.52155158474025        2.49214943479598       -4.95524209796155
C           35.89763822927507        0.02273410344031       -0.00461861407067
C           37.25334757988090        0.00204560595205       -0.02336060652616
C           38.51961722351744       -0.01970242754890       -0.02404492389484
C           39.80735324562209       -0.03179255626380       -0.02601010183710
C           41.08704826160984       -0.02185129717962       -0.03122484870668
C           42.29965873888625       -0.00243463246189       -0.03786586260706
C           43.58175501102078        0.02294490206257       -0.02307638098105
C           44.76719835086534        0.02851032138887       -0.00566708303696
C           54.09104024300127        0.03521603055625       -0.00723946463559
C           55.39246564802400        0.00330306706069       -0.02245637256825
C           56.62894472569399       -0.01957833651323       -0.02418316980399
C           57.91629036220149       -0.03211300158101       -0.02656478291259
C           59.19342940769232       -0.02182385935057       -0.03090340652445
C           60.41187179356013       -0.00231798022492       -0.03740443249313
C           61.73551927490908        0.02178287337497       -0.02214185366138
C           62.94993667986152        0.02326175932476       -0.00330755035009
Cu          49.42091102328640        0.00868857952096       -0.03510020894711
C           46.03726246725292       -0.01032394004883        0.03627320867829
C           46.65425749927626       -1.21270442853289        0.02337057933279
C           45.98528140591256       -2.50235637228791       -0.08339447591717
C           46.93096547814825       -3.43900939554436       -0.02584015988563
C           48.21737408833047       -2.76876396507067        0.12898878192743
N           48.03299299909335       -1.37053049794263        0.15376707653541
C           49.41659252852308       -3.40585538577994        0.25083292151818
C           50.69211019235122       -2.71055427415901        0.36945367280721
C           51.94865836609353       -3.34800845253209        0.74250023894492
C           52.91152064584703       -2.41834629470488        0.68902721366351
N           50.87407638642173       -1.43241585425537        0.10251116425032
C           52.23721287604695       -1.20909518758292        0.28948411730000
C           52.82720208188415       -0.01335338545706        0.02937758660073
C           52.10636641530681        1.19425454781924       -0.35006503201359
C           52.66463330839166        2.25962256083416       -0.96764176578797
C           51.64866796139734        3.26149694685338       -1.04776713169571
C           50.53159319884170        2.75312956593526       -0.46909142723199
C           49.29765638951404        3.50996882970960       -0.25169370980886
C           49.34895320508964        4.99570436049714       -0.26135475611156
C           50.11960807375640        5.67829574022316        0.68811948480597
C           50.19236876859136        7.06983552013652        0.66957048373836
C           49.50012042615210        7.81288292209161       -0.30738341490200
C           49.57931693639260        9.30169112200713       -0.31687152911985
O           48.94575172434867       10.00056124951063       -1.33004243478175
O           50.19188305145748        9.90048196882873        0.56538061163404
C           48.73775040501286        7.12243156276912       -1.26124791570452
C           48.66204270921693        5.73158382207383       -1.23831063113933
C           48.11798774030702        2.88715770229831       -0.02562790458819
C           46.85066203347031        3.52899894640412        0.27795685671723
C           45.94891289721601        2.54867579912547        0.35830045670767
C           46.65387773192558        1.29252792741428        0.11112495078586
N           47.92412455481059        1.48762607666991       -0.11211309120743
N           50.76644698191321        1.43296297603256       -0.01966090557471
C           49.44865561514170       -4.88894475033722        0.25630971100356
C           48.93407573398831       -5.61395198497201        1.34045900109161
C           48.99526577198165       -7.00672993729276        1.34951558365224
C           49.57448775498495       -7.70589346819517        0.27128370440262
C           49.63882481619245       -9.19602819587064        0.28945183426247
O           50.20874907927838       -9.85393280808928       -0.78464281266817
O           49.19333229843938       -9.83208609567421        1.24292055460556