126
 energy: -222.590800913541 gnorm: 0.000713120762 xtb: 6.5.1 (b24c23e)
Zn          14.54595384916904        0.03799213796045       -0.03071164820442
C           11.13695396036030        0.07799459817583       -0.09794985602785
C           11.76653266921783        1.30697519045030        0.05701119624926
C           11.09187791679961        2.56279220803831        0.23067794122485
C           12.05027997016201        3.51239215467615        0.36970416009153
C           13.32363695084359        2.84876778139471        0.27050447887422
N           13.11620417326571        1.51313979784184        0.08899997947494
C           14.57544726095605        3.46814188493757        0.37768250058858
C           14.58996647677836        4.93778816104838        0.57021417907843
C           15.15340417115156        5.49341503786579        1.72341223819582
C           15.16418296168397        6.86253066158251        1.90598826019711
C           14.61630979709290        7.70996803777676        0.93696649687323
C           14.64259501689295        9.16744433070314        1.15264260757496
O           15.11302438154154        9.69197278928742        2.12993302592529
C           14.05555258482830        7.15688234350119       -0.21701000167068
C           14.04065727051993        5.78518404703343       -0.39635620235349
C           15.81502619800657        2.82025859198689        0.32330532769773
C           17.09491129951394        3.47169069306197        0.37293315577721
C           18.04060261867435        2.50358368587195        0.26944558842817
N           16.00756383858805        1.47279059317101        0.17697746327494
C           17.34953765265546        1.25364818833675        0.14839212876425
C           17.98081125093291        0.00053478829830        0.01313101588072
C           17.32707247712487       -1.23983965872473       -0.13020696864542
C           17.99461763268364       -2.49830421119980       -0.28841602725328
C           17.03084316618981       -3.44691085088458       -0.40577245550936
C           15.76325271450013       -2.77633565676159       -0.31252989241061
N           15.98112301486970       -1.43422736783908       -0.15343102183318
C           14.51147043366325       -3.39526825484107       -0.40914295698313
C           14.49505783684241       -4.87005923214600       -0.55871624490248
C           13.93737437820649       -5.45969783420585       -1.69697270306598
C           13.91891178390969       -6.83584790997296       -1.83699901507425
C           14.45349353622992       -7.65239069500264       -0.83727176118009
C           14.44073671352718       -9.12076548964835       -0.96011727695881
O           14.88624704328976       -9.86714353901229       -0.12608591761730
C           15.01049696458357       -7.06323481901940        0.30284580065386
C           15.03362817460239       -5.68877051986933        0.43897020046908
C           13.27190006838753       -2.74378150641237       -0.37321761656494
C           11.98620322770922       -3.38871407202580       -0.42671641541318
C           11.04584116679037       -2.41488155979867       -0.34426224422599
C           11.74393719138870       -1.16519475935409       -0.22809377792498
N           13.08935594561356       -1.39822266853475       -0.24558450048429
H           10.05139704243403        0.08833564869679       -0.10351440499563
H           10.02073694579964        2.68889283652152        0.25117036763439
H           11.91136470332893        4.56825733811651        0.53831254807590
H           15.56724533575720        4.83870655248452        2.48206189679275
H           15.59413684711851        7.30044720498506        2.80042789181944
H           14.18653385144475        9.75812314425039        0.32931609693884
H           13.63271520898341        7.80735321692902       -0.97572879755410
H           13.61731057218311        5.36016976514307       -1.29956531410926
H           17.24935056411267        4.53502170363116        0.46034188306101
H           19.11268026731946        2.61935958185544        0.26829304834818
H           19.06455717943247       -2.63063265870158       -0.31206888160429
H           17.16508293537171       -4.50590511775855       -0.55674987258440
H           13.53305342544693       -4.82849227448644       -2.48042032035527
H           13.48926924997459       -7.28437444389857       -2.72696268593987
H           13.97958912605004       -9.49541002714081       -1.89894348440761
H           15.41978262862731       -7.70489795424929        1.07579781854384
H           15.45396020583840       -5.23576947757698        1.32985691130211
H           11.82718214098247       -4.45243063718608       -0.50307490223150
H            9.97249244049374       -2.52217857339202       -0.35128773694746
Zn          30.59151402836135       -0.03374146831271       -0.03571781930661
C           34.00051178657247       -0.06354474006718       -0.10777708024510
C           33.37110264964440       -1.30217169054002       -0.12854949613487
C           34.04585565774038       -2.56988189854150       -0.13451594570798
C           33.08750257341467       -3.52965903502905       -0.13219759931365
C           31.81412724213964       -2.85874737654325       -0.13684235204386
N           32.02145656497240       -1.51085121831083       -0.12668299416500
C           30.56236242927183       -3.48712213208564       -0.11997336886751
C           30.54796344069874       -4.96922829429311       -0.13869765599962
C           29.98492951106127       -5.68347997267959        0.92378483032439
C           29.97429370224872       -7.06464433264395        0.90945510725452
C           30.52171421375656       -7.76534075782990       -0.17069494786804
C           30.49518256746054       -9.23868196829738       -0.16502244647789
O           30.02510685851809       -9.89710788340621        0.72775957407576
C           31.08207098720758       -7.05346067502645       -1.23430895916657
C           31.09699057839934       -5.67019980426095       -1.21632720481790
C           29.32274070394573       -2.83816162919920       -0.08255633456871
C           28.04297265311015       -3.49014358310527       -0.12746676480376
C           27.09717475448047       -2.51724553020700       -0.09232990001759
N           29.13007925040894       -1.48363643905045       -0.03514016936259
C           27.78808328617931       -1.26279298142438       -0.03301387661866
C           27.15665800189987       -0.00329168807900        0.01238630138205
C           27.81028091547459        1.24489903769954        0.04804807389507
C           27.14256402287369        2.51295201637501        0.07148554151088
C           28.10621172485695        3.46872774091381        0.09044855796403
C           29.37391335632725        2.79191529180617        0.08662799858078
N           29.15618564872011        1.44080003576100        0.05256312984862
C           30.62566446010773        3.41845429206349        0.07863935111394
C           30.64197116977707        4.89947036640070        0.14050449808544
C           31.20110246277494        5.64503468520222       -0.90155486780095
C           31.21997544610835        7.02708677993833       -0.84422278168949
C           30.68405351753311        7.69318836502075        0.26080425303867
C           30.69727872578500        9.16406356730330        0.34824588750980
O           30.25030827866792        9.78427837993761        1.27922100909911
C           30.12522373876610        6.94789071416354        1.30460714544553
C           30.10196914558267        5.56805857016641        1.24378223578293
C           31.86528479841135        2.76855467515285        0.02085315149680
C           33.15098517893482        3.41460902817351        0.05902392741168
C           34.09137517020070        2.43900261945776        0.00182246999423
C           33.39335834362120        1.18544735722882       -0.06034725758051
N           32.04791236347124        1.41853138107085       -0.04410698459278
H           35.08607069881356       -0.07280479208086       -0.11478651479452
H           35.11700825277353       -2.69752594888211       -0.13153901386608
H           33.22640490118253       -4.59877040282522       -0.11516129006124
H           29.57123580309777       -5.14357234980811        1.76806389516131
H           29.54477330701678       -7.62555287388823        1.73258634713259
H           30.95030503306577       -9.70599737683409       -1.06450837168116
H           31.50454191566956       -7.58914922232375       -2.07817000411855
H           31.52001946484464       -5.12078123479385       -2.04989417255521
H           27.88872263022314       -4.55507590629534       -0.19292978751373
H           26.02513107089009       -2.63172209682405       -0.11099602279280
H           26.07260148421964        2.64718992731956        0.06722685858590
H           27.97172386583447        4.53839038527990        0.09224707964648
H           31.60632176432999        5.13166044607729       -1.76637530008838
H           31.65092337478776        7.59758490941098       -1.66069347141703
H           31.16058415897532        9.66835505014320       -0.52669296918574
H           29.71466148233657        7.47313436062875        2.16033310080366
H           29.68050006889756        4.99302676665284        2.06066182390889
H           33.31006113186821        4.47836968908961        0.13458417199433
H           35.16471512693305        2.54628695007787        0.00958689178504
C           23.18288744890103        0.00148847370244        0.01639349227072
C           21.95457043215626       -0.00488779401222        0.01653114096305
C           20.61017074543566       -0.00793140097844        0.01518212735100
C           19.38619201748012       -0.00943860948949        0.01436894239437
C           24.52729667894917        0.00482276834290        0.01559102407783
C           25.75126582138160        0.00621655116930        0.01486048252211
