      -----------------------------------------------------------      
     |                   =====================                   |     
     |                           x T B                           |     
     |                   =====================                   |     
     |                         S. Grimme                         |     
     |          Mulliken Center for Theoretical Chemistry        |     
     |                    University of Bonn                     |     
      -----------------------------------------------------------      

   * xtb version 6.5.1 (b24c23e) compiled by 'conda@728c89f4b128' on 2022-07-12

   xtb is free software: you can redistribute it and/or modify it under
   the terms of the GNU Lesser General Public License as published by
   the Free Software Foundation, either version 3 of the License, or
   (at your option) any later version.
   
   xtb is distributed in the hope that it will be useful,
   but WITHOUT ANY WARRANTY; without even the implied warranty of
   MERCHANTABILITY or FITNESS FOR A PARTICULAR PURPOSE.  See the
   GNU Lesser General Public License for more details.
   
   Cite this work as:
   * C. Bannwarth, E. Caldeweyher, S. Ehlert, A. Hansen, P. Pracht,
     J. Seibert, S. Spicher, S. Grimme, WIREs Comput. Mol. Sci., 2020, 11,
     e01493. DOI: 10.1002/wcms.1493
   
   for GFN2-xTB:
   * C. Bannwarth, S. Ehlert and S. Grimme., J. Chem. Theory Comput., 2019,
     15, 1652-1671. DOI: 10.1021/acs.jctc.8b01176
   for GFN1-xTB:
   * S. Grimme, C. Bannwarth, P. Shushkov, J. Chem. Theory Comput., 2017,
     13, 1989-2009. DOI: 10.1021/acs.jctc.7b00118
   for GFN0-xTB:
   * P. Pracht, E. Caldeweyher, S. Ehlert, S. Grimme, ChemRxiv, 2019, preprint.
     DOI: 10.26434/chemrxiv.8326202.v1
   for GFN-FF:
   * S. Spicher and S. Grimme, Angew. Chem. Int. Ed., 2020, 59, 15665-15673.
     DOI: 10.1002/anie.202004239
   
   for ALPB and GBSA implicit solvation:
   * S. Ehlert, M. Stahn, S. Spicher, S. Grimme, J. Chem. Theory Comput.,
     2021, 17, 4250-4261. DOI: 10.1021/acs.jctc.1c00471
   
   for DFT-D4:
   * E. Caldeweyher, C. Bannwarth and S. Grimme, J. Chem. Phys., 2017,
     147, 034112. DOI: 10.1063/1.4993215
   * E. Caldeweyher, S. Ehlert, A. Hansen, H. Neugebauer, S. Spicher,
     C. Bannwarth and S. Grimme, J. Chem. Phys., 2019, 150, 154122.
     DOI: 10.1063/1.5090222
   * E. Caldeweyher, J.-M. Mewes, S. Ehlert and S. Grimme, Phys. Chem. Chem. Phys.
     2020, 22, 8499-8512. DOI: 10.1039/D0CP00502A
   
   for sTDA-xTB:
   * S. Grimme and C. Bannwarth, J. Chem. Phys., 2016, 145, 054103.
     DOI: 10.1063/1.4959605
   
   in the mass-spec context:
   * V. Asgeirsson, C. Bauer and S. Grimme, Chem. Sci., 2017, 8, 4879.
     DOI: 10.1039/c7sc00601b
   * J. Koopman and S. Grimme, ACS Omega 2019, 4, 12, 15120-15133.
     DOI: 10.1021/acsomega.9b02011
   
   for metadynamics refer to:
   * S. Grimme, J. Chem. Theory Comput., 2019, 155, 2847-2862
     DOI: 10.1021/acs.jctc.9b00143
   
   for SPH calculations refer to:
   * S. Spicher and S. Grimme, J. Chem. Theory Comput., 2021, 17, 1701-1714
     DOI: 10.1021/acs.jctc.0c01306
   
   with help from (in alphabetical order)
   P. Atkinson, C. Bannwarth, F. Bohle, G. Brandenburg, E. Caldeweyher
   M. Checinski, S. Dohm, S. Ehlert, S. Ehrlich, I. Gerasimov, C. Hölzer
   A. Katbashev, J. Koopman, C. Lavigne, S. Lehtola, F. März, M. Müller,
   F. Musil, H. Neugebauer, J. Pisarek, C. Plett, P. Pracht, F. Pultar,
   J. Seibert, P. Shushkov, S. Spicher, M. Stahn, M. Steiner, T. Strunk,
   J. Stückrath, T. Rose, and J. Unsleber
   
 * started run on 2022/07/27 at 16:38:21.509     

           -------------------------------------------------
          |                Calculation Setup                |
           -------------------------------------------------

          program call               : xtb DHP_C2_9.xyz --gfn 1 --opt -T 48
          hostname                   : cx3-14-14.cx3.hpc.ic.ac.uk
          coordinate file            : DHP_C2_9.xyz
          omp threads                :                     1

   ID    Z sym.   atoms
    1    6 C      1-5, 7-10, 12-16, 18-23, 25-28, 30-35, 60-64, 66-69, 71-75,
                  77-82, 84-87, 89-94, 119-139, 141-144, 146-150, 152-157,
                  159-162, 164-169, 193-197, 199-202, 204-208, 210-215,
                  217-220, 222-227, 251-255, 257-260, 262-266, 268-273,
                  275-278, 280-285, 309-313, 315-318, 320-324, 326-331,
                  333-336, 338-343, 367-371, 373-376, 378-382, 384-389,
                  391-394, 396-401, 425-429, 431-434, 436-440, 442-447,
                  449-452, 454-459, 483-487, 489-492, 494-498, 500-505,
                  507-510, 512-517
    2    7 N      6, 11, 17, 24, 29, 36, 65, 70, 76, 83, 88, 95, 140, 145,
                  151, 158, 163, 170, 198, 203, 209, 216, 221, 228, 256, 261,
                  267, 274, 279, 286, 314, 319, 325, 332, 337, 344, 372, 377,
                  383, 390, 395, 402, 430, 435, 441, 448, 453, 460, 488, 493,
                  499, 506, 511, 518
    3    1 H      37-59, 96-118, 171-192, 229-250, 287-308, 345-366, 403-424,
                  461-482, 519-540

molecular fragmentation (1/2 indicates fragments):
111111111111111111111111111111111111111111111111111111111112222222222222
222222222222222222222222222222222222222222222222222222222222222222222222
222222222222222222222222222222222222222222222222222222222222222222222222
222222222222222222222222222222222222222222222222222222222222222222222222
222222222222222222222222222222222222222222222222222222222222222222222222
222222222222222222222222222222222222222222222222222222222222222222222222
222222222222222222222222222222222222222222222222222222222222222222222222
222222222222222222222222222222222222
# atoms in fragment 1/2:    59   481
 fragment masses (1/2) :      467.54     3925.48
CMA distance (Bohr)    :  92.670
constraining FC (au)   :  0.0500
########################################################################
[WARNING] Please study the warnings concerning your input carefully
-1- prog_main_parseArguments: Unknown option '-T' provided
########################################################################

           -------------------------------------------------
          |                 G F N 1 - x T B                 |
           -------------------------------------------------

        Reference                      10.1021/acs.jctc.7b00118
      * Hamiltonian:
        H0-scaling (s, p, d)           1.850000    2.250000    2.000000
        zeta-weighting                 0.000000
      * Dispersion:
        s8                             2.400000
        a1                             0.630000
        a2                             5.000000
        s9                             0.000000
      * Repulsion:
        kExp                           1.500000
        rExp                           1.000000
      * Coulomb:
        alpha                          2.000000
        third order                    atomic
        anisotropic                    false
      * Halogen bond correction:
        rad-scale                      1.300000
        damping                        0.440000


          ...................................................
          :                      SETUP                      :
          :.................................................:
          :  # basis functions                1760          :
          :  # atomic orbitals                1760          :
          :  # shells                         1080          :
          :  # electrons                      1614          :
          :  # halogen bonds                     0          :
          :  max. iterations                   250          :
          :  Hamiltonian                  GFN1-xTB          :
          :  restarted?                      false          :
          :  GBSA solvation                  false          :
          :  PC potential                    false          :
          :  electronic temp.          300.0000000     K    :
          :  accuracy                    1.0000000          :
          :  -> integral cutoff          0.2500000E+02      :
          :  -> integral neglect         0.1000000E-07      :
          :  -> SCF convergence          0.1000000E-05 Eh   :
          :  -> wf. convergence          0.2000000E-04 e    :
          :  Broyden damping             0.4000000          :
          ...................................................

 iter      E             dE          RMSdq      gap      omega  full diag
   1   -895.9084260 -0.895908E+03  0.101E+01    0.00       0.0  T
   2   -896.9684241 -0.106000E+01  0.605E+00    0.01       1.0  T
   3   -895.9798855  0.988539E+00  0.119E+00    0.44       1.0  T
   4   -894.7391916  0.124069E+01  0.848E-01    0.09       1.0  T
   5   -888.7044402  0.603475E+01  0.118E+00    0.05       1.0  T
   6   -896.8229799 -0.811854E+01  0.341E-01    0.12       1.0  T
   7   -896.8271080 -0.412813E-02  0.362E-01    0.49       1.0  T
   8   -896.9274546 -0.100347E+00  0.239E-01    0.31       1.0  T
   9   -897.0709699 -0.143515E+00  0.106E-01    0.03       1.0  T
  10   -897.0911543 -0.201843E-01  0.759E-02    0.01       1.0  T
  11   -897.0488238  0.423305E-01  0.118E-01    0.07       1.0  T
  12   -897.0959001 -0.470764E-01  0.295E-02    0.01       1.0  T
  13   -897.0953039  0.596228E-03  0.418E-02    0.01       1.0  T
  14   -897.0961596 -0.855713E-03  0.190E-02    0.01       1.0  T
  15   -897.0917627  0.439690E-02  0.493E-02    0.02       1.0  T
  16   -897.0978145 -0.605173E-02  0.838E-03    0.00       1.0  T
  17   -897.0966156  0.119890E-02  0.217E-02    0.01       1.0  T
  18   -897.0977251 -0.110958E-02  0.733E-03    0.00       1.0  T
  19   -897.0978683 -0.143154E-03  0.124E-03    0.00       3.5  T
  20   -897.0978681  0.212955E-06  0.140E-03    0.00       3.1  T
  21   -897.0978741 -0.601525E-05  0.343E-04    0.00      12.6  T
  22   -897.0978743 -0.219791E-06  0.140E-04    0.00      30.7  T
  23   -897.0978744 -0.388129E-07  0.494E-05    0.00      87.1  T

   *** convergence criteria satisfied after 23 iterations ***

         #    Occupation            Energy/Eh            Energy/eV
      -------------------------------------------------------------
         1        2.0000           -0.7904911             -21.5104
       ...           ...                  ...                  ...
       801        2.0000           -0.3685208             -10.0280
       802        2.0000           -0.3677582             -10.0072
       803        2.0000           -0.3676644             -10.0047
       804        2.0000           -0.3675884             -10.0026
       805        2.0000           -0.3675174             -10.0007
       806        2.0000           -0.3670499              -9.9879
       807        1.0109           -0.3519299              -9.5765 (HOMO)
       808        0.9876           -0.3518856              -9.5753 (LUMO)
       809        0.0008           -0.3444517              -9.3730
       810        0.0007           -0.3443443              -9.3701
       811        0.0000           -0.3379219              -9.1953
       812                         -0.3346890              -9.1074
       ...                                ...                  ...
      1760                          2.1247549              57.8175
      -------------------------------------------------------------
                  HL-Gap            0.0000443 Eh            0.0012 eV
             Fermi-level           -0.3519091 Eh           -9.5759 eV

 SCC (total)                   0 d,  0 h,  1 min, 29.946 sec
 SCC setup                      ...        0 min,  0.147 sec (  0.164%)
 Dispersion                     ...        0 min,  0.085 sec (  0.095%)
 classical contributions        ...        0 min,  0.019 sec (  0.022%)
 integral evaluation            ...        0 min,  2.080 sec (  2.313%)
 iterations                     ...        1 min, 23.677 sec ( 93.029%)
 molecular gradient             ...        0 min,  3.406 sec (  3.786%)
 printout                       ...        0 min,  0.532 sec (  0.592%)

         :::::::::::::::::::::::::::::::::::::::::::::::::::::
         ::                     SUMMARY                     ::
         :::::::::::::::::::::::::::::::::::::::::::::::::::::
         :: total energy            -881.819596755387 Eh    ::
         :: gradient norm              1.983722961037 Eh/a0 ::
         :: HOMO-LUMO gap              0.001206329626 eV    ::
         ::.................................................::
         :: SCC energy              -897.097874355841 Eh    ::
         :: -> electrostatic           0.752924897536 Eh    ::
         :: repulsion energy          15.747219783093 Eh    ::
         :: dispersion energy         -0.468942182639 Eh    ::
         :: halogen bond corr.         0.000000000000 Eh    ::
         :: add. restraining           0.000000000000 Eh    ::
         :: total charge              -0.000000001854 e     ::
         :::::::::::::::::::::::::::::::::::::::::::::::::::::

      ----------------------------------------------------------- 
     |                       L-ANC optimizer                     |
      ----------------------------------------------------------- 
          low memory version by Sebastian Ehlert

          ...................................................
          :                      SETUP                      :
          :.................................................:
          :   energy convergence        0.5000000E-05 Eh    :
          :   grad. convergence         0.1000000E-02 Eh/a0 :
          :   optimization log               true           :
          :   writing optlog all                1     steps :
          :   Hessian reset                    20     steps :
          :   maximium step len.        1.0000000     a0    :
          :   LBFGS images                     20           :
          ...................................................
 * calculating model hessian...
Using Lindh-Hessian (1995)
 Shifting diagonal of input Hessian by    1.0004201763658785E-002
 Lowest  eigenvalues of input Hessian
    0.010000    0.010003    0.010003    0.010004    0.000000    0.000000
    0.000000    0.000000    0.000000    0.000000    0.010005    0.010005
    0.010006    0.010007    0.010008    0.010009    0.010010    0.010010
 Highest eigenvalues
    3.524545    3.524548    3.524548    3.524549    3.524549    3.524551


........................................................................
.............................. CYCLE    1 ..............................
........................................................................
   1   -897.1521428 -0.897152E+03  0.924E-02    0.02       0.0  T
   2   -897.1506074  0.153542E-02  0.645E-02    0.03       1.0  T
   3   -897.0249404  0.125667E+00  0.192E-01    0.31       1.0  T
   4   -897.1583844 -0.133444E+00  0.213E-02    0.02       1.0  T
   5   -897.1563885  0.199591E-02  0.288E-02    0.02       1.0  T
   6   -897.1577610 -0.137251E-02  0.196E-02    0.02       1.0  T
   7   -897.1581325 -0.371441E-03  0.129E-02    0.02       1.0  T
   8   -897.1586735 -0.540999E-03  0.365E-03    0.02       1.2  T
   9   -897.1587065 -0.330403E-04  0.119E-03    0.02       3.6  T
  10   -897.1587055  0.102669E-05  0.112E-03    0.02       3.8  T
  11   -897.1587087 -0.323799E-05  0.519E-04    0.02       8.3  T
  12   -897.1587095 -0.755077E-06  0.154E-04    0.02      28.0  T
  13   -897.1587095 -0.366672E-07  0.752E-05    0.02      57.2  T
     SCC iter.                  ...        0 min, 44.572 sec
     gradient                   ...        0 min,  3.393 sec
 * total energy  :  -882.6641320 Eh     change       -0.8445353E+00 Eh
   gradient norm :     0.9252619 Eh/a0  converged?    E=F G=F D=F
   step length   :     0.6417086 a0

........................................................................
.............................. CYCLE    2 ..............................
........................................................................
   1   -897.2144321 -0.897214E+03  0.460E-02    0.04       0.0  T
   2   -897.2155875 -0.115537E-02  0.384E-02    0.04       1.0  T
   3   -897.1976601  0.179273E-01  0.679E-02    0.06       1.0  T
   4   -897.1897132  0.794688E-02  0.801E-02    0.07       1.0  T
   5   -897.2155235 -0.258102E-01  0.254E-02    0.04       1.0  T
   6   -897.2164000 -0.876535E-03  0.905E-03    0.04       1.0  T
   7   -897.2165014 -0.101443E-03  0.389E-03    0.04       1.1  T
   8   -897.2165390 -0.375327E-04  0.147E-03    0.04       2.9  T
   9   -897.2165438 -0.482069E-05  0.498E-04    0.04       8.6  T
  10   -897.2165443 -0.480754E-06  0.184E-04    0.04      23.4  T
  11   -897.2165443 -0.266559E-07  0.868E-05    0.04      49.6  T
     SCC iter.                  ...        0 min, 37.200 sec
     gradient                   ...        0 min,  3.358 sec
 * total energy  :  -882.9848448 Eh     change       -0.3207127E+00 Eh
   gradient norm :     0.7571934 Eh/a0  converged?    E=F G=F D=F
   step length   :     3.8819348 a0

........................................................................
.............................. CYCLE    3 ..............................
........................................................................
   1   -897.2927385 -0.897293E+03  0.386E-02    0.07       0.0  T
   2   -897.2933983 -0.659753E-03  0.331E-02    0.06       1.0  T
   3   -897.2895772  0.382112E-02  0.338E-02    0.07       1.0  T
   4   -897.2663821  0.231950E-01  0.790E-02    0.10       1.0  T
   5   -897.2925986 -0.262165E-01  0.252E-02    0.06       1.0  T
   6   -897.2938940 -0.129540E-02  0.879E-03    0.06       1.0  T
   7   -897.2940368 -0.142783E-03  0.419E-03    0.06       1.0  T
   8   -897.2940846 -0.478269E-04  0.163E-03    0.06       2.6  T
   9   -897.2940946 -0.100010E-04  0.397E-04    0.06      10.8  T
  10   -897.2940948 -0.145687E-06  0.225E-04    0.06      19.2  T
  11   -897.2940948 -0.281447E-07  0.171E-04    0.06      25.2  T
  12   -897.2940949 -0.865422E-07  0.119E-04    0.06      36.1  T
     SCC iter.                  ...        0 min, 41.399 sec
     gradient                   ...        0 min,  3.306 sec
 * total energy  :  -883.1776116 Eh     change       -0.1927668E+00 Eh
   gradient norm :     0.6483944 Eh/a0  converged?    E=F G=F D=F
   step length   :     8.2608958 a0

........................................................................
.............................. CYCLE    4 ..............................
........................................................................
   1   -897.3637818 -0.897364E+03  0.343E-02    0.10       0.0  T
   2   -897.3640608 -0.279014E-03  0.322E-02    0.09       1.0  T
   3   -897.3638502  0.210659E-03  0.184E-02    0.09       1.0  T
   4   -897.3518963  0.119539E-01  0.546E-02    0.11       1.0  T
   5   -897.3609681 -0.907185E-02  0.326E-02    0.09       1.0  T
   6   -897.3646119 -0.364379E-02  0.843E-03    0.09       1.0  T
   7   -897.3647510 -0.139040E-03  0.349E-03    0.09       1.2  T
   8   -897.3647881 -0.371441E-04  0.108E-03    0.09       4.0  T
   9   -897.3647918 -0.369671E-05  0.422E-04    0.09      10.2  T
  10   -897.3647924 -0.533030E-06  0.188E-04    0.09      22.9  T
  11   -897.3647924 -0.786209E-07  0.823E-05    0.09      52.3  T
     SCC iter.                  ...        0 min, 37.704 sec
     gradient                   ...        0 min,  3.421 sec
 * total energy  :  -883.3158036 Eh     change       -0.1381920E+00 Eh
   gradient norm :     0.5664462 Eh/a0  converged?    E=F G=F D=F
   step length   :     9.5257194 a0

........................................................................
.............................. CYCLE    5 ..............................
........................................................................
   1   -897.4324412 -0.897432E+03  0.318E-02    0.13       0.0  T
   2   -897.4325525 -0.111251E-03  0.287E-02    0.13       1.0  T
   3   -897.4326327 -0.802616E-04  0.157E-02    0.13       1.0  T
   4   -897.4310150  0.161772E-02  0.256E-02    0.13       1.0  T
   5   -897.4307340  0.280962E-03  0.259E-02    0.13       1.0  T
   6   -897.4331811 -0.244711E-02  0.677E-03    0.13       1.0  T
   7   -897.4332821 -0.100953E-03  0.270E-03    0.13       1.6  T
   8   -897.4333093 -0.272233E-04  0.664E-04    0.13       6.5  T
   9   -897.4333105 -0.122756E-05  0.274E-04    0.13      15.7  T
  10   -897.4333107 -0.200850E-06  0.146E-04    0.13      29.5  T
  11   -897.4333108 -0.459019E-07  0.503E-05    0.13      85.6  T
     SCC iter.                  ...        0 min, 38.611 sec
     gradient                   ...        0 min,  3.346 sec
 * total energy  :  -883.4225789 Eh     change       -0.1067753E+00 Eh
   gradient norm :     0.4899817 Eh/a0  converged?    E=F G=F D=F
   step length   :     7.9926100 a0

........................................................................
.............................. CYCLE    6 ..............................
........................................................................
   1   -897.5096881 -0.897510E+03  0.305E-02    0.18       0.0  T
   2   -897.5100124 -0.324260E-03  0.222E-02    0.18       1.0  T
   3   -897.5100976 -0.851665E-04  0.124E-02    0.18       1.0  T
   4   -897.5099746  0.122913E-03  0.145E-02    0.18       1.0  T
   5   -897.5104048 -0.430159E-03  0.544E-03    0.18       1.0  T
   6   -897.5104415 -0.366535E-04  0.306E-03    0.18       1.4  T
   7   -897.5104663 -0.248176E-04  0.170E-03    0.18       2.5  T
   8   -897.5104753 -0.898272E-05  0.601E-04    0.18       7.2  T
   9   -897.5104765 -0.120951E-05  0.184E-04    0.18      23.3  T
  10   -897.5104765 -0.562421E-07  0.973E-05    0.18      44.2  T
  11   -897.5104765 -0.210556E-07  0.414E-05    0.18     103.8  T
     SCC iter.                  ...        0 min, 34.848 sec
     gradient                   ...        0 min,  3.384 sec
 * total energy  :  -883.5111227 Eh     change       -0.8854376E-01 Eh
   gradient norm :     0.4091708 Eh/a0  converged?    E=F G=F D=F
   step length   :     6.5276493 a0

........................................................................
.............................. CYCLE    7 ..............................
........................................................................
   1   -897.5821374 -0.897582E+03  0.281E-02    0.25       0.0  T
   2   -897.5825402 -0.402806E-03  0.175E-02    0.24       1.0  T
   3   -897.5826612 -0.121024E-03  0.886E-03    0.24       1.0  T
   4   -897.5826138  0.474021E-04  0.101E-02    0.24       1.0  T
   5   -897.5827980 -0.184211E-03  0.299E-03    0.24       1.4  T
   6   -897.5827976  0.359287E-06  0.163E-03    0.24       2.6  T
   7   -897.5828065 -0.882413E-05  0.498E-04    0.24       8.6  T
   8   -897.5828072 -0.766489E-06  0.162E-04    0.24      26.5  T
   9   -897.5828073 -0.265945E-07  0.863E-05    0.24      49.9  T
     SCC iter.                  ...        0 min, 29.577 sec
     gradient                   ...        0 min,  3.434 sec
 * total energy  :  -883.5819729 Eh     change       -0.7085027E-01 Eh
   gradient norm :     0.3281835 Eh/a0  converged?    E=F G=F D=F
   step length   :     5.6147837 a0

........................................................................
.............................. CYCLE    8 ..............................
........................................................................
   1   -897.6524325 -0.897652E+03  0.249E-02    0.32       0.0  T
   2   -897.6527681 -0.335515E-03  0.152E-02    0.31       1.0  T
   3   -897.6528840 -0.115917E-03  0.641E-03    0.31       1.0  T
   4   -897.6528343  0.496849E-04  0.797E-03    0.31       1.0  T
   5   -897.6529401 -0.105834E-03  0.227E-03    0.31       1.9  T
   6   -897.6529423 -0.220766E-05  0.609E-04    0.31       7.1  T
   7   -897.6529429 -0.596378E-06  0.172E-04    0.31      25.0  T
   8   -897.6529429 -0.878231E-09  0.125E-04    0.31      34.5  T
     SCC iter.                  ...        0 min, 26.287 sec
     gradient                   ...        0 min,  3.262 sec
 * total energy  :  -883.6360271 Eh     change       -0.5405414E-01 Eh
   gradient norm :     0.2451560 Eh/a0  converged?    E=F G=F D=F
   step length   :     4.3766664 a0

........................................................................
.............................. CYCLE    9 ..............................
........................................................................
   1   -897.7039237 -0.897704E+03  0.210E-02    0.38       0.0  T
   2   -897.7041717 -0.248080E-03  0.131E-02    0.38       1.0  T
   3   -897.7042635 -0.917914E-04  0.520E-03    0.38       1.0  T
   4   -897.7042318  0.316902E-04  0.615E-03    0.38       1.0  T
   5   -897.7042896 -0.577920E-04  0.202E-03    0.38       2.1  T
   6   -897.7042926 -0.300396E-05  0.549E-04    0.38       7.8  T
   7   -897.7042932 -0.548180E-06  0.164E-04    0.38      26.2  T
   8   -897.7042932 -0.192737E-07  0.112E-04    0.38      38.6  T
     SCC iter.                  ...        0 min, 28.454 sec
     gradient                   ...        0 min,  3.278 sec
 * total energy  :  -883.6740618 Eh     change       -0.3803475E-01 Eh
   gradient norm :     0.1721234 Eh/a0  converged?    E=F G=F D=F
   step length   :     3.4054353 a0

........................................................................
.............................. CYCLE   10 ..............................
........................................................................
   1   -897.7469813 -0.897747E+03  0.179E-02    0.45       0.0  T
   2   -897.7471564 -0.175036E-03  0.114E-02    0.45       1.0  T
   3   -897.7472273 -0.709159E-04  0.427E-03    0.45       1.0  T
   4   -897.7472057  0.215896E-04  0.499E-03    0.45       1.0  T
   5   -897.7472404 -0.347182E-04  0.175E-03    0.45       2.5  T
   6   -897.7472434 -0.303092E-05  0.445E-04    0.45       9.7  T
   7   -897.7472438 -0.357031E-06  0.122E-04    0.45      35.4  T
   8   -897.7472438 -0.726766E-08  0.823E-05    0.45      52.3  T
     SCC iter.                  ...        0 min, 29.288 sec
     gradient                   ...        0 min,  3.298 sec
 * total energy  :  -883.6988311 Eh     change       -0.2476930E-01 Eh
   gradient norm :     0.1049842 Eh/a0  converged?    E=F G=F D=F
   step length   :     2.6359174 a0

........................................................................
.............................. CYCLE   11 ..............................
........................................................................
   1   -897.7682873 -0.897768E+03  0.143E-02    0.51       0.0  T
   2   -897.7684014 -0.114106E-03  0.982E-03    0.50       1.0  T
   3   -897.7684517 -0.503187E-04  0.379E-03    0.50       1.1  T
   4   -897.7684386  0.130736E-04  0.393E-03    0.50       1.1  T
   5   -897.7684545 -0.158976E-04  0.154E-03    0.50       2.8  T
   6   -897.7684583 -0.372027E-05  0.392E-04    0.50      11.0  T
   7   -897.7684586 -0.306488E-06  0.108E-04    0.50      40.0  T
   8   -897.7684586 -0.113139E-07  0.611E-05    0.50      70.4  T
     SCC iter.                  ...        0 min, 27.501 sec
     gradient                   ...        0 min,  3.388 sec
 * total energy  :  -883.7129409 Eh     change       -0.1410981E-01 Eh
   gradient norm :     0.0573047 Eh/a0  converged?    E=F G=F D=F
   step length   :     2.0482409 a0

........................................................................
.............................. CYCLE   12 ..............................
........................................................................
   1   -897.7806227 -0.897781E+03  0.139E-02    0.55       0.0  T
   2   -897.7807005 -0.777920E-04  0.110E-02    0.55       1.0  T
   3   -897.7807644 -0.639497E-04  0.410E-03    0.55       1.0  T
   4   -897.7807424  0.219953E-04  0.451E-03    0.55       1.0  T
   5   -897.7807666 -0.241904E-04  0.153E-03    0.55       2.8  T
   6   -897.7807701 -0.342011E-05  0.356E-04    0.55      12.1  T
   7   -897.7807703 -0.249869E-06  0.111E-04    0.55      38.9  T
   8   -897.7807703 -0.200131E-07  0.447E-05    0.55      96.3  T
     SCC iter.                  ...        0 min, 29.503 sec
     gradient                   ...        0 min,  3.488 sec
 * total energy  :  -883.7196029 Eh     change       -0.6661983E-02 Eh
   gradient norm :     0.0407001 Eh/a0  converged?    E=F G=F D=F
   step length   :     1.7131358 a0

........................................................................
.............................. CYCLE   13 ..............................
........................................................................
   1   -897.7794722 -0.897779E+03  0.112E-02    0.58       0.0  T
   2   -897.7795177 -0.454544E-04  0.936E-03    0.58       1.0  T
   3   -897.7795612 -0.435001E-04  0.370E-03    0.58       1.2  T
   4   -897.7795465  0.146650E-04  0.371E-03    0.58       1.2  T
   5   -897.7795610 -0.145225E-04  0.117E-03    0.58       3.7  T
   6   -897.7795635 -0.251775E-05  0.282E-04    0.58      15.3  T
   7   -897.7795637 -0.161855E-06  0.874E-05    0.58      49.2  T
   8   -897.7795637 -0.133947E-07  0.326E-05    0.58     132.0  T
     SCC iter.                  ...        0 min, 27.296 sec
     gradient                   ...        0 min,  3.338 sec
 * total energy  :  -883.7233599 Eh     change       -0.3756940E-02 Eh
   gradient norm :     0.0396348 Eh/a0  converged?    E=F G=F D=F
   step length   :     1.3175928 a0

........................................................................
.............................. CYCLE   14 ..............................
........................................................................
   1   -897.7638303 -0.897764E+03  0.487E-03    0.59       0.0  T
   2   -897.7638378 -0.747970E-05  0.392E-03    0.59       1.1  T
   3   -897.7638453 -0.749104E-05  0.180E-03    0.59       2.4  T
   4   -897.7638425  0.273746E-05  0.157E-03    0.59       2.7  T
   5   -897.7638457 -0.316268E-05  0.444E-04    0.59       9.7  T
   6   -897.7638461 -0.348109E-06  0.177E-04    0.59      24.4  T
   7   -897.7638461 -0.687575E-07  0.426E-05    0.59     101.0  T
     SCC iter.                  ...        0 min, 22.963 sec
     gradient                   ...        0 min,  3.352 sec
 * total energy  :  -883.7261642 Eh     change       -0.2804345E-02 Eh
   gradient norm :     0.0357339 Eh/a0  converged?    E=F G=F D=F
   step length   :     0.8401298 a0

........................................................................
.............................. CYCLE   15 ..............................
........................................................................
   1   -897.7433453 -0.897743E+03  0.416E-03    0.59       0.0  T
   2   -897.7433541 -0.877395E-05  0.248E-03    0.59       1.7  T
   3   -897.7433564 -0.234916E-05  0.120E-03    0.59       3.6  T
   4   -897.7433561  0.345129E-06  0.825E-04    0.59       5.2  T
   5   -897.7433566 -0.564201E-06  0.328E-04    0.59      13.1  T
   6   -897.7433568 -0.189751E-06  0.135E-04    0.59      31.9  T
   7   -897.7433569 -0.371139E-07  0.384E-05    0.59     112.1  T
     SCC iter.                  ...        0 min, 24.160 sec
     gradient                   ...        0 min,  2.139 sec
 * total energy  :  -883.7294104 Eh     change       -0.3246217E-02 Eh
   gradient norm :     0.0342066 Eh/a0  converged?    E=F G=F D=F
   step length   :     2.2633424 a0

........................................................................
.............................. CYCLE   16 ..............................
........................................................................
   1   -897.7233051 -0.897723E+03  0.398E-03    0.58       0.0  T
   2   -897.7233127 -0.761749E-05  0.260E-03    0.58       1.7  T
   3   -897.7233165 -0.377838E-05  0.109E-03    0.58       4.0  T
   4   -897.7233160  0.533900E-06  0.986E-04    0.58       4.4  T
   5   -897.7233171 -0.114865E-05  0.380E-04    0.58      11.3  T
   6   -897.7233173 -0.194977E-06  0.136E-04    0.58      31.6  T
   7   -897.7233173 -0.356774E-07  0.418E-05    0.58     102.8  T
     SCC iter.                  ...        0 min, 19.739 sec
     gradient                   ...        0 min,  2.204 sec
 * total energy  :  -883.7322314 Eh     change       -0.2821012E-02 Eh
   gradient norm :     0.0332786 Eh/a0  converged?    E=F G=F D=F
   step length   :     2.4611931 a0

........................................................................
.............................. CYCLE   17 ..............................
........................................................................
   1   -897.7055700 -0.897706E+03  0.356E-03    0.58       0.0  T
   2   -897.7055767 -0.663340E-05  0.225E-03    0.58       1.9  T
   3   -897.7055795 -0.285374E-05  0.910E-04    0.58       4.7  T
   4   -897.7055794  0.105043E-06  0.735E-04    0.58       5.9  T
   5   -897.7055797 -0.299652E-06  0.292E-04    0.58      14.8  T
   6   -897.7055799 -0.138365E-06  0.119E-04    0.58      36.1  T
   7   -897.7055799 -0.343825E-07  0.355E-05    0.58     121.1  T
     SCC iter.                  ...        0 min, 18.572 sec
     gradient                   ...        0 min,  2.271 sec
 * total energy  :  -883.7345924 Eh     change       -0.2360943E-02 Eh
   gradient norm :     0.0319907 Eh/a0  converged?    E=F G=F D=F
   step length   :     2.6374422 a0

........................................................................
.............................. CYCLE   18 ..............................
........................................................................
   1   -897.6934778 -0.897693E+03  0.321E-03    0.57       0.0  T
   2   -897.6934813 -0.355698E-05  0.215E-03    0.57       2.0  T
   3   -897.6934835 -0.215745E-05  0.885E-04    0.57       4.9  T
   4   -897.6934828  0.696895E-06  0.893E-04    0.57       4.8  T
   5   -897.6934838 -0.100713E-05  0.303E-04    0.57      14.2  T
   6   -897.6934839 -0.145673E-06  0.889E-05    0.57      48.4  T
   7   -897.6934839 -0.139771E-07  0.306E-05    0.57     140.6  T
     SCC iter.                  ...        0 min, 18.956 sec
     gradient                   ...        0 min,  2.255 sec
 * total energy  :  -883.7366155 Eh     change       -0.2023127E-02 Eh
   gradient norm :     0.0289960 Eh/a0  converged?    E=F G=F D=F
   step length   :     2.9165673 a0

........................................................................
.............................. CYCLE   19 ..............................
........................................................................
   1   -897.6869778 -0.897687E+03  0.298E-03    0.57       0.0  T
   2   -897.6869814 -0.359447E-05  0.179E-03    0.57       2.4  T
   3   -897.6869828 -0.138181E-05  0.809E-04    0.57       5.3  T
   4   -897.6869826  0.199174E-06  0.663E-04    0.57       6.5  T
   5   -897.6869830 -0.374288E-06  0.215E-04    0.57      20.0  T
   6   -897.6869831 -0.803917E-07  0.839E-05    0.57      51.3  T
   7   -897.6869831 -0.156662E-07  0.276E-05    0.57     156.1  T
     SCC iter.                  ...        0 min, 19.675 sec
     gradient                   ...        0 min,  2.335 sec
 * total energy  :  -883.7384375 Eh     change       -0.1821965E-02 Eh
   gradient norm :     0.0263671 Eh/a0  converged?    E=F G=F D=F
   step length   :     3.2127241 a0

........................................................................
.............................. CYCLE   20 ..............................
........................................................................
   1   -897.6856346 -0.897686E+03  0.280E-03    0.56       0.0  T
   2   -897.6856379 -0.324411E-05  0.153E-03    0.56       2.8  T
   3   -897.6856386 -0.763786E-06  0.732E-04    0.56       5.9  T
   4   -897.6856383  0.375150E-06  0.544E-04    0.56       7.9  T
   5   -897.6856387 -0.403022E-06  0.189E-04    0.56      22.8  T
   6   -897.6856388 -0.764226E-07  0.730E-05    0.56      59.0  T
     SCC iter.                  ...        0 min, 16.689 sec
     gradient                   ...        0 min,  2.248 sec
 * total energy  :  -883.7401530 Eh     change       -0.1715523E-02 Eh
   gradient norm :     0.0223542 Eh/a0  converged?    E=F G=F D=F
   step length   :     3.4225082 a0
 * RMSD in coord.:     0.6314965 a0     energy gain  -0.1920556E+01 Eh
 * calculating model hessian...
Using Lindh-Hessian (1995)
 Shifting diagonal of input Hessian by    1.0241067638853565E-002
 Lowest  eigenvalues of input Hessian
    0.010000    0.010069    0.010123    0.010170    0.010217    0.010230
    0.010232    0.010234    0.010238    0.010239    0.010240    0.010240
    0.010241    0.000000    0.000000    0.000000    0.000000    0.000000
 Highest eigenvalues
    2.611769    2.611841    2.623238    2.623457    2.627834    2.627884


........................................................................
.............................. CYCLE   21 ..............................
........................................................................
   1   -897.7153277 -0.897715E+03  0.309E-03    0.56       0.0  T
   2   -897.7153306 -0.293474E-05  0.176E-03    0.56       2.4  T
   3   -897.7153312 -0.533550E-06  0.106E-03    0.56       4.0  T
   4   -897.7153309  0.264941E-06  0.802E-04    0.56       5.4  T
   5   -897.7153319 -0.950288E-06  0.287E-04    0.56      15.0  T
   6   -897.7153320 -0.155490E-06  0.856E-05    0.56      50.3  T
   7   -897.7153320 -0.136148E-07  0.208E-05    0.56     207.2  T
     SCC iter.                  ...        0 min, 20.065 sec
     gradient                   ...        0 min,  2.194 sec
 * total energy  :  -883.7414916 Eh     change       -0.1338653E-02 Eh
   gradient norm :     0.0114404 Eh/a0  converged?    E=F G=F D=F
   step length   :     0.2654977 a0

........................................................................
.............................. CYCLE   22 ..............................
........................................................................
   1   -897.7731458 -0.897773E+03  0.618E-03    0.56       0.0  T
   2   -897.7731595 -0.136956E-04  0.382E-03    0.56       1.1  T
   3   -897.7731638 -0.427076E-05  0.223E-03    0.56       1.9  T
   4   -897.7731624  0.140768E-05  0.169E-03    0.56       2.5  T
   5   -897.7731667 -0.429833E-05  0.572E-04    0.56       7.5  T
   6   -897.7731673 -0.569845E-06  0.196E-04    0.56      21.9  T
   7   -897.7731673 -0.751876E-07  0.515E-05    0.56      83.6  T
     SCC iter.                  ...        0 min, 20.533 sec
     gradient                   ...        0 min,  2.274 sec
 * total energy  :  -883.7430589 Eh     change       -0.1567259E-02 Eh
   gradient norm :     0.0126576 Eh/a0  converged?    E=F G=F D=F
   step length   :     0.6736267 a0

........................................................................
.............................. CYCLE   23 ..............................
........................................................................
   1   -897.7973127 -0.897797E+03  0.373E-03    0.55       0.0  T
   2   -897.7973177 -0.506181E-05  0.253E-03    0.55       1.7  T
   3   -897.7973211 -0.336372E-05  0.130E-03    0.55       3.3  T
   4   -897.7973204  0.722136E-06  0.108E-03    0.55       4.0  T
   5   -897.7973220 -0.162578E-05  0.368E-04    0.55      11.7  T
   6   -897.7973222 -0.263102E-06  0.108E-04    0.55      39.7  T
   7   -897.7973223 -0.190245E-07  0.345E-05    0.55     124.8  T
     SCC iter.                  ...        0 min, 19.801 sec
     gradient                   ...        0 min,  2.258 sec
 * total energy  :  -883.7439995 Eh     change       -0.9405539E-03 Eh
   gradient norm :     0.0185394 Eh/a0  converged?    E=F G=F D=F
   step length   :     0.6313721 a0

........................................................................
.............................. CYCLE   24 ..............................
........................................................................
   1   -897.8009177 -0.897801E+03  0.380E-03    0.55       0.0  T
   2   -897.8009233 -0.562246E-05  0.236E-03    0.55       1.8  T
   3   -897.8009266 -0.323488E-05  0.103E-03    0.55       4.2  T
   4   -897.8009262  0.361513E-06  0.842E-04    0.55       5.1  T
   5   -897.8009268 -0.599012E-06  0.328E-04    0.55      13.1  T
   6   -897.8009270 -0.231112E-06  0.848E-05    0.55      50.8  T
   7   -897.8009270 -0.129295E-07  0.299E-05    0.55     143.9  T
     SCC iter.                  ...        0 min, 21.194 sec
     gradient                   ...        0 min,  2.165 sec
 * total energy  :  -883.7450429 Eh     change       -0.1043389E-02 Eh
   gradient norm :     0.0167028 Eh/a0  converged?    E=F G=F D=F
   step length   :     0.7112147 a0

........................................................................
.............................. CYCLE   25 ..............................
........................................................................
   1   -897.7923919 -0.897792E+03  0.540E-03    0.55       0.0  T
   2   -897.7924041 -0.122658E-04  0.295E-03    0.55       1.5  T
   3   -897.7924086 -0.448102E-05  0.125E-03    0.55       3.4  T
   4   -897.7924084  0.217101E-06  0.890E-04    0.55       4.8  T
   5   -897.7924089 -0.535370E-06  0.245E-04    0.55      17.5  T
   6   -897.7924090 -0.926041E-07  0.117E-04    0.55      36.6  T
   7   -897.7924090 -0.287805E-07  0.275E-05    0.55     156.4  T
     SCC iter.                  ...        0 min, 19.748 sec
     gradient                   ...        0 min,  2.245 sec
 * total energy  :  -883.7463324 Eh     change       -0.1289513E-02 Eh
   gradient norm :     0.0130522 Eh/a0  converged?    E=F G=F D=F
   step length   :     1.5815201 a0

........................................................................
.............................. CYCLE   26 ..............................
........................................................................
   1   -897.7777566 -0.897778E+03  0.512E-03    0.55       0.0  T
   2   -897.7777677 -0.110925E-04  0.259E-03    0.55       1.7  T
   3   -897.7777708 -0.313450E-05  0.112E-03    0.55       3.8  T
   4   -897.7777705  0.329329E-06  0.787E-04    0.55       5.5  T
   5   -897.7777710 -0.462027E-06  0.299E-04    0.55      14.4  T
   6   -897.7777711 -0.167139E-06  0.129E-04    0.55      33.4  T
   7   -897.7777712 -0.391142E-07  0.276E-05    0.55     155.8  T
     SCC iter.                  ...        0 min, 18.189 sec
     gradient                   ...        0 min,  2.209 sec
 * total energy  :  -883.7474932 Eh     change       -0.1160826E-02 Eh
   gradient norm :     0.0144656 Eh/a0  converged?    E=F G=F D=F
   step length   :     1.9306696 a0

........................................................................
.............................. CYCLE   27 ..............................
........................................................................
   1   -897.7620505 -0.897762E+03  0.448E-03    0.55       0.0  T
   2   -897.7620587 -0.815749E-05  0.216E-03    0.55       2.0  T
   3   -897.7620607 -0.199213E-05  0.986E-04    0.55       4.4  T
   4   -897.7620601  0.543371E-06  0.773E-04    0.55       5.6  T
   5   -897.7620608 -0.716699E-06  0.292E-04    0.55      14.7  T
   6   -897.7620610 -0.169738E-06  0.104E-04    0.55      41.3  T
   7   -897.7620610 -0.214222E-07  0.245E-05    0.55     175.8  T
     SCC iter.                  ...        0 min, 19.432 sec
     gradient                   ...        0 min,  2.263 sec
 * total energy  :  -883.7486461 Eh     change       -0.1152940E-02 Eh
   gradient norm :     0.0185056 Eh/a0  converged?    E=F G=F D=F
   step length   :     2.1917002 a0

........................................................................
.............................. CYCLE   28 ..............................
........................................................................
   1   -897.7478917 -0.897748E+03  0.364E-03    0.56       0.0  T
   2   -897.7478966 -0.489413E-05  0.172E-03    0.56       2.5  T
   3   -897.7478977 -0.103843E-05  0.877E-04    0.56       4.9  T
   4   -897.7478972  0.484953E-06  0.763E-04    0.56       5.6  T
   5   -897.7478981 -0.925815E-06  0.191E-04    0.56      22.5  T
   6   -897.7478982 -0.469302E-07  0.908E-05    0.56      47.4  T
     SCC iter.                  ...        0 min, 16.633 sec
     gradient                   ...        0 min,  2.280 sec
 * total energy  :  -883.7498727 Eh     change       -0.1226597E-02 Eh
   gradient norm :     0.0213796 Eh/a0  converged?    E=F G=F D=F
   step length   :     2.3970384 a0

........................................................................
.............................. CYCLE   29 ..............................
........................................................................
   1   -897.7364085 -0.897736E+03  0.288E-03    0.56       0.0  T
   2   -897.7364110 -0.249962E-05  0.135E-03    0.56       3.2  T
   3   -897.7364114 -0.449089E-06  0.798E-04    0.56       5.4  T
   4   -897.7364113  0.104637E-06  0.659E-04    0.56       6.5  T
   5   -897.7364120 -0.676171E-06  0.135E-04    0.56      32.0  T
   6   -897.7364120 -0.106940E-07  0.866E-05    0.56      49.7  T
     SCC iter.                  ...        0 min, 16.497 sec
     gradient                   ...        0 min,  2.383 sec
 * total energy  :  -883.7511175 Eh     change       -0.1244815E-02 Eh
   gradient norm :     0.0219427 Eh/a0  converged?    E=F G=F D=F
   step length   :     2.4650543 a0

........................................................................
.............................. CYCLE   30 ..............................
........................................................................
   1   -897.7282877 -0.897728E+03  0.242E-03    0.56       0.0  T
   2   -897.7282893 -0.158058E-05  0.119E-03    0.56       3.6  T
   3   -897.7282896 -0.370932E-06  0.734E-04    0.56       5.9  T
   4   -897.7282898 -0.144680E-06  0.541E-04    0.56       8.0  T
   5   -897.7282902 -0.387006E-06  0.130E-04    0.56      33.1  T
   6   -897.7282902 -0.145611E-07  0.753E-05    0.56      57.2  T
     SCC iter.                  ...        0 min, 16.219 sec
     gradient                   ...        0 min,  2.267 sec
 * total energy  :  -883.7523167 Eh     change       -0.1199147E-02 Eh
   gradient norm :     0.0201144 Eh/a0  converged?    E=F G=F D=F
   step length   :     2.4215921 a0

........................................................................
.............................. CYCLE   31 ..............................
........................................................................
   1   -897.7227878 -0.897723E+03  0.228E-03    0.56       0.0  T
   2   -897.7227895 -0.172500E-05  0.115E-03    0.56       3.7  T
   3   -897.7227901 -0.580366E-06  0.642E-04    0.56       6.7  T
   4   -897.7227901 -0.573323E-07  0.475E-04    0.56       9.1  T
   5   -897.7227904 -0.273259E-06  0.127E-04    0.56      33.8  T
   6   -897.7227904 -0.151591E-07  0.655E-05    0.56      65.7  T
     SCC iter.                  ...        0 min, 15.948 sec
     gradient                   ...        0 min,  2.381 sec
 * total energy  :  -883.7534069 Eh     change       -0.1090261E-02 Eh
   gradient norm :     0.0167656 Eh/a0  converged?    E=F G=F D=F
   step length   :     2.3569430 a0

........................................................................
.............................. CYCLE   32 ..............................
........................................................................
   1   -897.7211122 -0.897721E+03  0.235E-03    0.56       0.0  T
   2   -897.7211146 -0.235490E-05  0.122E-03    0.56       3.5  T
   3   -897.7211154 -0.810086E-06  0.593E-04    0.56       7.3  T
   4   -897.7211154 -0.377941E-08  0.450E-04    0.56       9.6  T
   5   -897.7211156 -0.222333E-06  0.128E-04    0.56      33.7  T
   6   -897.7211156 -0.148073E-07  0.560E-05    0.56      76.9  T
     SCC iter.                  ...        0 min, 16.029 sec
     gradient                   ...        0 min,  2.324 sec
 * total energy  :  -883.7544082 Eh     change       -0.1001241E-02 Eh
   gradient norm :     0.0129160 Eh/a0  converged?    E=F G=F D=F
   step length   :     2.2635480 a0

........................................................................
.............................. CYCLE   33 ..............................
........................................................................
   1   -897.7201128 -0.897720E+03  0.240E-03    0.56       0.0  T
   2   -897.7201155 -0.271263E-05  0.122E-03    0.56       3.5  T
   3   -897.7201163 -0.768083E-06  0.563E-04    0.56       7.6  T
   4   -897.7201162  0.592441E-07  0.439E-04    0.56       9.8  T
   5   -897.7201165 -0.220171E-06  0.118E-04    0.56      36.3  T
   6   -897.7201165 -0.143028E-07  0.447E-05    0.56      96.3  T
     SCC iter.                  ...        0 min, 14.078 sec
     gradient                   ...        0 min,  2.258 sec
 * total energy  :  -883.7552942 Eh     change       -0.8860250E-03 Eh
   gradient norm :     0.0104516 Eh/a0  converged?    E=F G=F D=F
   step length   :     2.2557074 a0

........................................................................
.............................. CYCLE   34 ..............................
........................................................................
   1   -897.7285142 -0.897729E+03  0.293E-03    0.56       0.0  T
   2   -897.7285184 -0.414631E-05  0.148E-03    0.56       2.9  T
   3   -897.7285195 -0.112788E-05  0.649E-04    0.56       6.6  T
   4   -897.7285194  0.830156E-07  0.506E-04    0.56       8.5  T
   5   -897.7285197 -0.252059E-06  0.168E-04    0.56      25.6  T
   6   -897.7285197 -0.340904E-07  0.755E-05    0.56      57.0  T
     SCC iter.                  ...        0 min, 16.035 sec
     gradient                   ...        0 min,  2.223 sec
 * total energy  :  -883.7561811 Eh     change       -0.8869160E-03 Eh
   gradient norm :     0.0099829 Eh/a0  converged?    E=F G=F D=F
   step length   :     2.0681045 a0

........................................................................
.............................. CYCLE   35 ..............................
........................................................................
   1   -897.7176822 -0.897718E+03  0.372E-03    0.56       0.0  T
   2   -897.7176865 -0.430959E-05  0.177E-03    0.56       2.4  T
   3   -897.7176873 -0.790720E-06  0.948E-04    0.56       4.5  T
   4   -897.7176868  0.547913E-06  0.624E-04    0.56       6.9  T
   5   -897.7176874 -0.671484E-06  0.169E-04    0.56      25.5  T
   6   -897.7176875 -0.573922E-07  0.681E-05    0.56      63.2  T
     SCC iter.                  ...        0 min, 16.582 sec
     gradient                   ...        0 min,  2.220 sec
 * total energy  :  -883.7567744 Eh     change       -0.5932220E-03 Eh
   gradient norm :     0.0121253 Eh/a0  converged?    E=F G=F D=F
   step length   :     2.6191666 a0

........................................................................
.............................. CYCLE   36 ..............................
........................................................................
   1   -897.7429149 -0.897743E+03  0.492E-03    0.56       0.0  T
   2   -897.7429245 -0.960095E-05  0.231E-03    0.56       1.9  T
   3   -897.7429265 -0.204462E-05  0.111E-03    0.56       3.9  T
   4   -897.7429260  0.528487E-06  0.815E-04    0.56       5.3  T
   5   -897.7429267 -0.737202E-06  0.293E-04    0.56      14.7  T
   6   -897.7429269 -0.157771E-06  0.115E-04    0.56      37.4  T
   7   -897.7429269 -0.271654E-07  0.328E-05    0.56     131.0  T
     SCC iter.                  ...        0 min, 18.986 sec
     gradient                   ...        0 min,  2.369 sec
 * total energy  :  -883.7575632 Eh     change       -0.7888002E-03 Eh
   gradient norm :     0.0145464 Eh/a0  converged?    E=F G=F D=F
   step length   :     2.3405490 a0

........................................................................
.............................. CYCLE   37 ..............................
........................................................................
   1   -897.7388906 -0.897739E+03  0.372E-03    0.56       0.0  T
   2   -897.7388947 -0.411536E-05  0.184E-03    0.56       2.3  T
   3   -897.7388956 -0.892361E-06  0.984E-04    0.56       4.4  T
   4   -897.7388950  0.562932E-06  0.699E-04    0.56       6.2  T
   5   -897.7388958 -0.755854E-06  0.199E-04    0.56      21.7  T
   6   -897.7388959 -0.804604E-07  0.722E-05    0.56      59.6  T
     SCC iter.                  ...        0 min, 16.476 sec
     gradient                   ...        0 min,  2.261 sec
 * total energy  :  -883.7581453 Eh     change       -0.5821366E-03 Eh
   gradient norm :     0.0139278 Eh/a0  converged?    E=F G=F D=F
   step length   :     1.2603976 a0

........................................................................
.............................. CYCLE   38 ..............................
........................................................................
   1   -897.7625461 -0.897763E+03  0.356E-03    0.56       0.0  T
   2   -897.7625501 -0.393058E-05  0.184E-03    0.56       2.3  T
   3   -897.7625511 -0.107314E-05  0.103E-03    0.56       4.2  T
   4   -897.7625508  0.286142E-06  0.800E-04    0.56       5.4  T
   5   -897.7625517 -0.897251E-06  0.208E-04    0.56      20.7  T
   6   -897.7625518 -0.564340E-07  0.103E-04    0.56      41.7  T
   7   -897.7625518 -0.213842E-07  0.297E-05    0.56     145.0  T
     SCC iter.                  ...        0 min, 19.340 sec
     gradient                   ...        0 min,  2.398 sec
 * total energy  :  -883.7589119 Eh     change       -0.7666096E-03 Eh
   gradient norm :     0.0107925 Eh/a0  converged?    E=F G=F D=F
   step length   :     0.8106982 a0

........................................................................
.............................. CYCLE   39 ..............................
........................................................................
   1   -897.7587752 -0.897759E+03  0.298E-03    0.56       0.0  T
   2   -897.7587787 -0.355418E-05  0.166E-03    0.56       2.6  T
   3   -897.7587805 -0.178156E-05  0.780E-04    0.56       5.5  T
   4   -897.7587806 -0.688564E-07  0.526E-04    0.56       8.2  T
   5   -897.7587808 -0.195305E-06  0.213E-04    0.56      20.2  T
   6   -897.7587808 -0.674510E-07  0.755E-05    0.56      57.0  T
   7   -897.7587808 -0.965520E-08  0.241E-05    0.56     178.7  T
     SCC iter.                  ...        0 min, 18.555 sec
     gradient                   ...        0 min,  2.253 sec
 * total energy  :  -883.7594694 Eh     change       -0.5575142E-03 Eh
   gradient norm :     0.0065112 Eh/a0  converged?    E=F G=F D=F
   step length   :     0.5789977 a0

........................................................................
.............................. CYCLE   40 ..............................
........................................................................
   1   -897.7585484 -0.897759E+03  0.320E-03    0.56       0.0  T
   2   -897.7585536 -0.517825E-05  0.177E-03    0.56       2.4  T
   3   -897.7585556 -0.204133E-05  0.807E-04    0.56       5.3  T
   4   -897.7585556 -0.424046E-07  0.579E-04    0.56       7.4  T
   5   -897.7585559 -0.253628E-06  0.226E-04    0.56      19.0  T
   6   -897.7585560 -0.644703E-07  0.939E-05    0.56      45.8  T
   7   -897.7585560 -0.179053E-07  0.290E-05    0.56     148.3  T
     SCC iter.                  ...        0 min, 19.594 sec
     gradient                   ...        0 min,  2.225 sec
 * total energy  :  -883.7599939 Eh     change       -0.5244372E-03 Eh
   gradient norm :     0.0101565 Eh/a0  converged?    E=F G=F D=F
   step length   :     0.7193555 a0

........................................................................
.............................. CYCLE   41 ..............................
........................................................................
   1   -897.7384967 -0.897738E+03  0.373E-03    0.56       0.0  T
   2   -897.7385007 -0.401965E-05  0.173E-03    0.56       2.5  T
   3   -897.7385017 -0.103759E-05  0.957E-04    0.56       4.5  T
   4   -897.7385017  0.554767E-07  0.585E-04    0.56       7.4  T
   5   -897.7385019 -0.263795E-06  0.222E-04    0.56      19.4  T
   6   -897.7385020 -0.106060E-06  0.839E-05    0.56      51.3  T
   7   -897.7385020 -0.170750E-07  0.185E-05    0.56     232.2  T
     SCC iter.                  ...        0 min, 18.708 sec
     gradient                   ...        0 min,  2.484 sec
 * total energy  :  -883.7603159 Eh     change       -0.3220866E-03 Eh
   gradient norm :     0.0111195 Eh/a0  converged?    E=F G=F D=F
   step length   :     0.4674885 a0

........................................................................
.............................. CYCLE   42 ..............................
........................................................................
   1   -897.7301341 -0.897730E+03  0.313E-03    0.56       0.0  T
   2   -897.7301379 -0.378039E-05  0.167E-03    0.56       2.6  T
   3   -897.7301392 -0.133464E-05  0.877E-04    0.56       4.9  T
   4   -897.7301391  0.857057E-07  0.627E-04    0.56       6.9  T
   5   -897.7301396 -0.464200E-06  0.243E-04    0.56      17.7  T
   6   -897.7301397 -0.946869E-07  0.101E-04    0.56      42.7  T
   7   -897.7301397 -0.236239E-07  0.284E-05    0.56     151.5  T
     SCC iter.                  ...        0 min, 19.670 sec
     gradient                   ...        0 min,  2.181 sec
 * total energy  :  -883.7607858 Eh     change       -0.4699111E-03 Eh
   gradient norm :     0.0080160 Eh/a0  converged?    E=F G=F D=F
   step length   :     0.5060285 a0
 * RMSD in coord.:     0.6220791 a0     energy gain  -0.2063285E-01 Eh
 * calculating model hessian...
Using Lindh-Hessian (1995)
 Shifting diagonal of input Hessian by    1.0205884149181657E-002
 Lowest  eigenvalues of input Hessian
    0.010000    0.010050    0.010116    0.010163    0.010191    0.010198
    0.010200    0.010202    0.010203    0.010204    0.010205    0.010205
    0.010205    0.000000    0.000000    0.000000    0.000000    0.000000
 Highest eigenvalues
    2.626778    2.627091    2.630175    2.630471    2.633629    2.633649


........................................................................
.............................. CYCLE   43 ..............................
........................................................................
   1   -897.7372371 -0.897737E+03  0.178E-03    0.56       0.0  T
   2   -897.7372381 -0.989360E-06  0.814E-04    0.56       5.3  T
   3   -897.7372383 -0.237992E-06  0.457E-04    0.56       9.4  T
   4   -897.7372383  0.150472E-07  0.295E-04    0.56      14.6  T
   5   -897.7372384 -0.837482E-07  0.115E-04    0.56      37.4  T
   6   -897.7372384 -0.258218E-07  0.454E-05    0.56      94.9  T
     SCC iter.                  ...        0 min, 16.339 sec
     gradient                   ...        0 min,  2.179 sec
 * total energy  :  -883.7609588 Eh     change       -0.1729091E-03 Eh
   gradient norm :     0.0044844 Eh/a0  converged?    E=F G=F D=F
   step length   :     0.0938925 a0

........................................................................
.............................. CYCLE   44 ..............................
........................................................................
   1   -897.7450379 -0.897745E+03  0.208E-03    0.56       0.0  T
   2   -897.7450394 -0.152985E-05  0.101E-03    0.56       4.2  T
   3   -897.7450400 -0.562924E-06  0.488E-04    0.56       8.8  T
   4   -897.7450400 -0.322226E-07  0.313E-04    0.56      13.7  T
   5   -897.7450400 -0.419441E-07  0.149E-04    0.56      28.9  T
   6   -897.7450401 -0.450168E-07  0.558E-05    0.56      77.1  T
     SCC iter.                  ...        0 min, 16.238 sec
     gradient                   ...        0 min,  2.199 sec
 * total energy  :  -883.7611130 Eh     change       -0.1542238E-03 Eh
   gradient norm :     0.0036671 Eh/a0  converged?    E=F G=F D=F
   step length   :     0.1475557 a0

........................................................................
.............................. CYCLE   45 ..............................
........................................................................
   1   -897.7516719 -0.897752E+03  0.278E-03    0.56       0.0  T
   2   -897.7516752 -0.333085E-05  0.153E-03    0.56       2.8  T
   3   -897.7516770 -0.176166E-05  0.581E-04    0.56       7.4  T
   4   -897.7516771 -0.864238E-07  0.392E-04    0.56      11.0  T
   5   -897.7516771 -0.118098E-07  0.220E-04    0.56      19.6  T
   6   -897.7516772 -0.970404E-07  0.723E-05    0.56      59.5  T
   7   -897.7516772 -0.111437E-07  0.205E-05    0.56     209.8  T
     SCC iter.                  ...        0 min, 18.540 sec
     gradient                   ...        0 min,  2.204 sec
 * total energy  :  -883.7613375 Eh     change       -0.2245122E-03 Eh
   gradient norm :     0.0066004 Eh/a0  converged?    E=F G=F D=F
   step length   :     0.3397608 a0

........................................................................
.............................. CYCLE   46 ..............................
........................................................................
   1   -897.7516390 -0.897752E+03  0.209E-03    0.56       0.0  T
   2   -897.7516410 -0.199145E-05  0.128E-03    0.56       3.4  T
   3   -897.7516423 -0.129675E-05  0.465E-04    0.56       9.2  T
   4   -897.7516423 -0.150939E-07  0.336E-04    0.56      12.8  T
   5   -897.7516423 -0.224339E-07  0.184E-04    0.56      23.4  T
   6   -897.7516424 -0.705487E-07  0.465E-05    0.56      92.6  T
     SCC iter.                  ...        0 min, 17.031 sec
     gradient                   ...        0 min,  2.313 sec
 * total energy  :  -883.7615447 Eh     change       -0.2071750E-03 Eh
   gradient norm :     0.0078210 Eh/a0  converged?    E=F G=F D=F
   step length   :     0.4323396 a0

........................................................................
.............................. CYCLE   47 ..............................
........................................................................
   1   -897.7462208 -0.897746E+03  0.196E-03    0.56       0.0  T
   2   -897.7462222 -0.137789E-05  0.114E-03    0.56       3.8  T
   3   -897.7462229 -0.679092E-06  0.529E-04    0.56       8.1  T
   4   -897.7462228  0.111924E-06  0.413E-04    0.56      10.4  T
   5   -897.7462230 -0.203420E-06  0.162E-04    0.56      26.5  T
   6   -897.7462230 -0.510155E-07  0.386E-05    0.56     111.4  T
     SCC iter.                  ...        0 min, 15.961 sec
     gradient                   ...        0 min,  2.123 sec
 * total energy  :  -883.7617502 Eh     change       -0.2055725E-03 Eh
   gradient norm :     0.0070951 Eh/a0  converged?    E=F G=F D=F
   step length   :     0.5296994 a0

........................................................................
.............................. CYCLE   48 ..............................
........................................................................
   1   -897.7386223 -0.897739E+03  0.197E-03    0.55       0.0  T
   2   -897.7386236 -0.127266E-05  0.938E-04    0.55       4.6  T
   3   -897.7386238 -0.214969E-06  0.493E-04    0.55       8.7  T
   4   -897.7386236  0.197866E-06  0.417E-04    0.55      10.3  T
   5   -897.7386239 -0.318200E-06  0.111E-04    0.55      38.7  T
   6   -897.7386239 -0.168476E-07  0.488E-05    0.55      88.2  T
     SCC iter.                  ...        0 min, 15.981 sec
     gradient                   ...        0 min,  2.315 sec
 * total energy  :  -883.7619352 Eh     change       -0.1849160E-03 Eh
   gradient norm :     0.0059118 Eh/a0  converged?    E=F G=F D=F
   step length   :     0.4945733 a0

........................................................................
.............................. CYCLE   49 ..............................
........................................................................
   1   -897.7326238 -0.897733E+03  0.215E-03    0.55       0.0  T
   2   -897.7326257 -0.192070E-05  0.101E-03    0.55       4.3  T
   3   -897.7326262 -0.505261E-06  0.505E-04    0.55       8.5  T
   4   -897.7326262 -0.510806E-08  0.351E-04    0.55      12.3  T
   5   -897.7326263 -0.827882E-07  0.171E-04    0.55      25.2  T
   6   -897.7326264 -0.611365E-07  0.603E-05    0.55      71.4  T
     SCC iter.                  ...        0 min, 16.952 sec
     gradient                   ...        0 min,  2.191 sec
 * total energy  :  -883.7621172 Eh     change       -0.1820782E-03 Eh
   gradient norm :     0.0060160 Eh/a0  converged?    E=F G=F D=F
   step length   :     0.4602468 a0

........................................................................
.............................. CYCLE   50 ..............................
........................................................................
   1   -897.7298211 -0.897730E+03  0.180E-03    0.55       0.0  T
   2   -897.7298228 -0.166869E-05  0.974E-04    0.55       4.4  T
   3   -897.7298235 -0.643466E-06  0.424E-04    0.55      10.2  T
   4   -897.7298235 -0.165051E-07  0.291E-04    0.55      14.8  T
   5   -897.7298235 -0.160753E-07  0.149E-04    0.55      28.9  T
   6   -897.7298235 -0.450007E-07  0.555E-05    0.55      77.6  T
     SCC iter.                  ...        0 min, 15.918 sec
     gradient                   ...        0 min,  2.286 sec
 * total energy  :  -883.7622714 Eh     change       -0.1542041E-03 Eh
   gradient norm :     0.0061360 Eh/a0  converged?    E=F G=F D=F
   step length   :     0.3922137 a0

........................................................................
.............................. CYCLE   51 ..............................
........................................................................
   1   -897.7285976 -0.897729E+03  0.175E-03    0.55       0.0  T
   2   -897.7285993 -0.163874E-05  0.958E-04    0.55       4.5  T
   3   -897.7285998 -0.493950E-06  0.389E-04    0.55      11.1  T
   4   -897.7285997  0.328022E-07  0.295E-04    0.55      14.6  T
   5   -897.7285998 -0.685727E-07  0.104E-04    0.55      41.2  T
   6   -897.7285998 -0.138218E-07  0.461E-05    0.55      93.4  T
     SCC iter.                  ...        0 min, 17.365 sec
     gradient                   ...        0 min,  2.208 sec
 * total energy  :  -883.7624164 Eh     change       -0.1449532E-03 Eh
   gradient norm :     0.0054939 Eh/a0  converged?    E=F G=F D=F
   step length   :     0.4620698 a0

........................................................................
.............................. CYCLE   52 ..............................
........................................................................
   1   -897.7304579 -0.897730E+03  0.174E-03    0.55       0.0  T
   2   -897.7304592 -0.136735E-05  0.931E-04    0.55       4.6  T
   3   -897.7304596 -0.397437E-06  0.403E-04    0.55      10.7  T
   4   -897.7304596  0.662701E-07  0.334E-04    0.55      12.9  T
   5   -897.7304597 -0.146584E-06  0.908E-05    0.55      47.4  T
   6   -897.7304597 -0.576529E-08  0.475E-05    0.55      90.7  T
     SCC iter.                  ...        0 min, 16.073 sec
     gradient                   ...        0 min,  2.260 sec
 * total energy  :  -883.7625602 Eh     change       -0.1437629E-03 Eh
   gradient norm :     0.0050601 Eh/a0  converged?    E=F G=F D=F
   step length   :     0.5033152 a0

........................................................................
.............................. CYCLE   53 ..............................
........................................................................
   1   -897.7325243 -0.897733E+03  0.153E-03    0.55       0.0  T
   2   -897.7325252 -0.921916E-06  0.831E-04    0.55       5.2  T
   3   -897.7325256 -0.378635E-06  0.380E-04    0.55      11.3  T
   4   -897.7325256 -0.128847E-07  0.290E-04    0.55      14.9  T
   5   -897.7325257 -0.965024E-07  0.987E-05    0.55      43.6  T
   6   -897.7325257 -0.911405E-08  0.467E-05    0.55      92.1  T
     SCC iter.                  ...        0 min, 15.939 sec
     gradient                   ...        0 min,  2.174 sec
 * total energy  :  -883.7626994 Eh     change       -0.1392128E-03 Eh
   gradient norm :     0.0051470 Eh/a0  converged?    E=F G=F D=F
   step length   :     0.5750212 a0

........................................................................
.............................. CYCLE   54 ..............................
........................................................................
   1   -897.7367092 -0.897737E+03  0.132E-03    0.55       0.0  T
   2   -897.7367098 -0.629603E-06  0.756E-04    0.55       5.7  T
   3   -897.7367102 -0.379006E-06  0.374E-04    0.55      11.5  T
   4   -897.7367103 -0.358571E-07  0.252E-04    0.55      17.1  T
   5   -897.7367103 -0.443181E-07  0.126E-04    0.55      34.0  T
   6   -897.7367103 -0.295109E-07  0.304E-05    0.55     141.6  T
     SCC iter.                  ...        0 min, 16.012 sec
     gradient                   ...        0 min,  2.329 sec
 * total energy  :  -883.7628139 Eh     change       -0.1145004E-03 Eh
   gradient norm :     0.0046683 Eh/a0  converged?    E=F G=F D=F
   step length   :     0.4726297 a0

........................................................................
.............................. CYCLE   55 ..............................
........................................................................
   1   -897.7337765 -0.897734E+03  0.124E-03    0.55       0.0  T
   2   -897.7337770 -0.566832E-06  0.695E-04    0.55       6.2  T
   3   -897.7337773 -0.294504E-06  0.337E-04    0.55      12.8  T
   4   -897.7337773 -0.106330E-07  0.219E-04    0.55      19.7  T
   5   -897.7337774 -0.267962E-07  0.100E-04    0.55      42.8  T
   6   -897.7337774 -0.202277E-07  0.263E-05    0.55     163.4  T
     SCC iter.                  ...        0 min, 15.595 sec
     gradient                   ...        0 min,  2.197 sec
 * total energy  :  -883.7628877 Eh     change       -0.7380470E-04 Eh
   gradient norm :     0.0034796 Eh/a0  converged?    E=F G=F D=F
   step length   :     0.4238751 a0

........................................................................
.............................. CYCLE   56 ..............................
........................................................................
   1   -897.7393734 -0.897739E+03  0.172E-03    0.55       0.0  T
   2   -897.7393744 -0.974482E-06  0.932E-04    0.55       4.6  T
   3   -897.7393747 -0.267252E-06  0.501E-04    0.55       8.6  T
   4   -897.7393745  0.123511E-06  0.358E-04    0.55      12.0  T
   5   -897.7393747 -0.177811E-06  0.101E-04    0.55      42.8  T
   6   -897.7393747 -0.196335E-07  0.396E-05    0.55     108.7  T
     SCC iter.                  ...        0 min, 16.215 sec
     gradient                   ...        0 min,  2.194 sec
 * total energy  :  -883.7629353 Eh     change       -0.4764382E-04 Eh
   gradient norm :     0.0039564 Eh/a0  converged?    E=F G=F D=F
   step length   :     0.1981007 a0

........................................................................
.............................. CYCLE   57 ..............................
........................................................................
   1   -897.7319743 -0.897732E+03  0.106E-03    0.55       0.0  T
   2   -897.7319745 -0.224045E-06  0.552E-04    0.55       7.8  T
   3   -897.7319745 -0.289161E-07  0.337E-04    0.55      12.8  T
   4   -897.7319745  0.316064E-07  0.239E-04    0.55      18.0  T
   5   -897.7319746 -0.954805E-07  0.563E-05    0.55      76.4  T
   6   -897.7319746 -0.424643E-08  0.255E-05    0.55     168.9  T
     SCC iter.                  ...        0 min, 16.272 sec
     gradient                   ...        0 min,  2.299 sec
 * total energy  :  -883.7629826 Eh     change       -0.4727504E-04 Eh
   gradient norm :     0.0032717 Eh/a0  converged?    E=F G=F D=F
   step length   :     0.2277494 a0

........................................................................
.............................. CYCLE   58 ..............................
........................................................................
   1   -897.7263860 -0.897726E+03  0.965E-04    0.55       0.0  T
   2   -897.7263863 -0.275426E-06  0.515E-04    0.55       8.4  T
   3   -897.7263864 -0.981073E-07  0.282E-04    0.55      15.3  T
   4   -897.7263864  0.843249E-08  0.207E-04    0.55      20.8  T
   5   -897.7263864 -0.531828E-07  0.645E-05    0.55      66.7  T
   6   -897.7263864 -0.637488E-08  0.275E-05    0.55     156.3  T
     SCC iter.                  ...        0 min, 16.349 sec
     gradient                   ...        0 min,  2.500 sec
 * total energy  :  -883.7630313 Eh     change       -0.4865797E-04 Eh
   gradient norm :     0.0029409 Eh/a0  converged?    E=F G=F D=F
   step length   :     0.1743950 a0

........................................................................
.............................. CYCLE   59 ..............................
........................................................................
   1   -897.7230852 -0.897723E+03  0.113E-03    0.55       0.0  T
   2   -897.7230856 -0.427642E-06  0.589E-04    0.55       7.3  T
   3   -897.7230857 -0.155515E-06  0.292E-04    0.55      14.7  T
   4   -897.7230857  0.241478E-07  0.217E-04    0.55      19.8  T
   5   -897.7230858 -0.563717E-07  0.746E-05    0.55      57.7  T
   6   -897.7230858 -0.106186E-07  0.262E-05    0.55     164.5  T
     SCC iter.                  ...        0 min, 15.692 sec
     gradient                   ...        0 min,  2.289 sec
 * total energy  :  -883.7630738 Eh     change       -0.4258080E-04 Eh
   gradient norm :     0.0024992 Eh/a0  converged?    E=F G=F D=F
   step length   :     0.2361238 a0

........................................................................
.............................. CYCLE   60 ..............................
........................................................................
   1   -897.7224397 -0.897722E+03  0.981E-04    0.55       0.0  T
   2   -897.7224400 -0.328807E-06  0.489E-04    0.55       8.8  T
   3   -897.7224401 -0.104735E-06  0.230E-04    0.55      18.7  T
   4   -897.7224401  0.245409E-07  0.178E-04    0.55      24.2  T
   5   -897.7224401 -0.407842E-07  0.632E-05    0.55      68.1  T
     SCC iter.                  ...        0 min, 13.529 sec
     gradient                   ...        0 min,  2.280 sec
 * total energy  :  -883.7631076 Eh     change       -0.3374756E-04 Eh
   gradient norm :     0.0021098 Eh/a0  converged?    E=F G=F D=F
   step length   :     0.2497158 a0

........................................................................
.............................. CYCLE   61 ..............................
........................................................................
   1   -897.7237420 -0.897724E+03  0.960E-04    0.55       0.0  T
   2   -897.7237423 -0.320954E-06  0.479E-04    0.55       9.0  T
   3   -897.7237424 -0.104811E-06  0.224E-04    0.55      19.2  T
   4   -897.7237424  0.207219E-07  0.176E-04    0.55      24.4  T
   5   -897.7237424 -0.376579E-07  0.646E-05    0.55      66.6  T
     SCC iter.                  ...        0 min, 14.188 sec
     gradient                   ...        0 min,  2.255 sec
 * total energy  :  -883.7631437 Eh     change       -0.3612986E-04 Eh
   gradient norm :     0.0022536 Eh/a0  converged?    E=F G=F D=F
   step length   :     0.3073403 a0

........................................................................
.............................. CYCLE   62 ..............................
........................................................................
   1   -897.7258766 -0.897726E+03  0.608E-04    0.55       0.0  T
   2   -897.7258767 -0.131442E-06  0.330E-04    0.55      13.1  T
   3   -897.7258768 -0.481491E-07  0.165E-04    0.55      26.0  T
   4   -897.7258768  0.788896E-08  0.124E-04    0.55      34.8  T
     SCC iter.                  ...        0 min, 11.435 sec
     gradient                   ...        0 min,  2.327 sec
 * total energy  :  -883.7631737 Eh     change       -0.3002126E-04 Eh
   gradient norm :     0.0023851 Eh/a0  converged?    E=F G=F D=F
   step length   :     0.2650717 a0

........................................................................
.............................. CYCLE   63 ..............................
........................................................................
   1   -897.7274400 -0.897727E+03  0.514E-04    0.55       0.0  T
   2   -897.7274401 -0.838972E-07  0.305E-04    0.55      14.1  T
   3   -897.7274401 -0.440982E-07  0.168E-04    0.55      25.7  T
   4   -897.7274401 -0.204273E-08  0.125E-04    0.55      34.4  T
     SCC iter.                  ...        0 min, 12.040 sec
     gradient                   ...        0 min,  2.141 sec
 * total energy  :  -883.7631991 Eh     change       -0.2534606E-04 Eh
   gradient norm :     0.0020823 Eh/a0  converged?    E=F G=F D=F
   step length   :     0.2218992 a0

........................................................................
.............................. CYCLE   64 ..............................
........................................................................
   1   -897.7262073 -0.897726E+03  0.103E-03    0.55       0.0  T
   2   -897.7262077 -0.409216E-06  0.512E-04    0.55       8.4  T
   3   -897.7262078 -0.112350E-06  0.244E-04    0.55      17.6  T
   4   -897.7262078  0.111530E-07  0.191E-04    0.55      22.5  T
   5   -897.7262078 -0.466695E-07  0.535E-05    0.55      80.4  T
     SCC iter.                  ...        0 min, 14.846 sec
     gradient                   ...        0 min,  2.083 sec
 * total energy  :  -883.7632250 Eh     change       -0.2590973E-04 Eh
   gradient norm :     0.0016579 Eh/a0  converged?    E=F G=F D=F
   step length   :     0.1559266 a0

........................................................................
.............................. CYCLE   65 ..............................
........................................................................
   1   -897.7237960 -0.897724E+03  0.784E-04    0.55       0.0  T
   2   -897.7237962 -0.237345E-06  0.464E-04    0.55       9.3  T
   3   -897.7237964 -0.112845E-06  0.221E-04    0.55      19.5  T
   4   -897.7237964  0.983698E-08  0.172E-04    0.55      25.0  T
   5   -897.7237964 -0.331037E-07  0.535E-05    0.55      80.4  T
     SCC iter.                  ...        0 min, 15.275 sec
     gradient                   ...        0 min,  2.220 sec
 * total energy  :  -883.7632445 Eh     change       -0.1946984E-04 Eh
   gradient norm :     0.0021701 Eh/a0  converged?    E=F G=F D=F
   step length   :     0.2164963 a0

........................................................................
.............................. CYCLE   66 ..............................
........................................................................
   1   -897.7242296 -0.897724E+03  0.536E-04    0.55       0.0  T
   2   -897.7242298 -0.115482E-06  0.305E-04    0.55      14.1  T
   3   -897.7242298 -0.561502E-07  0.143E-04    0.55      30.1  T
   4   -897.7242298 -0.132309E-08  0.944E-05    0.55      45.6  T
     SCC iter.                  ...        0 min, 11.398 sec
     gradient                   ...        0 min,  2.273 sec
 * total energy  :  -883.7632600 Eh     change       -0.1550500E-04 Eh
   gradient norm :     0.0016227 Eh/a0  converged?    E=F G=F D=F
   step length   :     0.1214098 a0

........................................................................
.............................. CYCLE   67 ..............................
........................................................................
   1   -897.7219851 -0.897722E+03  0.118E-03    0.55       0.0  T
   2   -897.7219857 -0.559961E-06  0.663E-04    0.55       6.5  T
[...]
   265   6 C      296   1 H                                       1.0782119
   266   6 C      297   1 H                                       1.0778678
   271   6 C      298   1 H                                       1.0773617
   272   6 C      299   1 H                                       1.0777174
   274   7 N      300   1 H                                       1.0145621
   277   6 C      301   1 H                                       1.0838352
   278   6 C      302   1 H                                       1.1061932
   278   6 C      303   1 H                                       1.0986209
   279   7 N      304   1 H                                       1.0097674
   280   6 C      305   1 H                                       1.0853447
   281   6 C      306   1 H                                       1.0806594
   283   6 C      307   1 H                                       1.0781580
   284   6 C      308   1 H                                       1.0776888
   309   6 C      310   6 C                                       1.4091705
   310   6 C      311   6 C                                       1.4180536
   311   6 C      312   6 C                                       1.3683824
   312   6 C      313   6 C                                       1.4208461
   310   6 C      314   7 N                                       1.3634307
   313   6 C      314   7 N                                       1.3698785
   313   6 C      315   6 C                                       1.3998506
   316   6 C      317   6 C                                       1.3415683
   318   6 C      319   7 N                                       1.4652560
   319   7 N      320   6 C                                       1.3710235
   320   6 C      321   6 C                                       1.3445592
   315   6 C      322   6 C                                       1.3954021
   322   6 C      323   6 C                                       1.4512592
   323   6 C      324   6 C                                       1.3494214
   322   6 C      325   7 N                                       1.3618531
   324   6 C      326   6 C                                       1.4488951
   325   7 N      326   6 C                                       1.3488209
   326   6 C      327   6 C                                       1.4097872
   327   6 C      328   6 C                                       1.4083987
   328   6 C      329   6 C                                       1.4181536
   329   6 C      330   6 C                                       1.3682551
   330   6 C      331   6 C                                       1.4210423
   328   6 C      332   7 N                                       1.3635191
   331   6 C      332   7 N                                       1.3697856
   331   6 C      333   6 C                                       1.3995779
   334   6 C      335   6 C                                       1.3409906
   336   6 C      337   7 N                                       1.4653552
   337   7 N      338   6 C                                       1.3707639
   338   6 C      339   6 C                                       1.3446670
   333   6 C      340   6 C                                       1.3950261
   340   6 C      341   6 C                                       1.4513200
   341   6 C      342   6 C                                       1.3491553
   309   6 C      343   6 C                                       1.4099084
   342   6 C      343   6 C                                       1.4486847
   340   6 C      344   7 N                                       1.3623131
   343   6 C      344   7 N                                       1.3488330
   311   6 C      345   1 H                                       1.0774204
   312   6 C      346   1 H                                       1.0777203
   314   7 N      347   1 H                                       1.0144854
   317   6 C      348   1 H                                       1.0838545
   318   6 C      349   1 H                                       1.1063797
   318   6 C      350   1 H                                       1.0985507
   319   7 N      351   1 H                                       1.0098022
   320   6 C      352   1 H                                       1.0853542
   321   6 C      353   1 H                                       1.0806686
   323   6 C      354   1 H                                       1.0781985
   324   6 C      355   1 H                                       1.0780273
   329   6 C      356   1 H                                       1.0775465
   330   6 C      357   1 H                                       1.0777224
   332   7 N      358   1 H                                       1.0145359
   335   6 C      359   1 H                                       1.0838382
   336   6 C      360   1 H                                       1.1062901
   336   6 C      361   1 H                                       1.0985846
   337   7 N      362   1 H                                       1.0097762
   338   6 C      363   1 H                                       1.0853372
   339   6 C      364   1 H                                       1.0806527
   341   6 C      365   1 H                                       1.0781580
   342   6 C      366   1 H                                       1.0777850
   367   6 C      368   6 C                                       1.4086962
   368   6 C      369   6 C                                       1.4182703
   369   6 C      370   6 C                                       1.3682690
   370   6 C      371   6 C                                       1.4210255
   368   6 C      372   7 N                                       1.3634976
   371   6 C      372   7 N                                       1.3698059
   371   6 C      373   6 C                                       1.3997505
   374   6 C      375   6 C                                       1.3413133
   376   6 C      377   7 N                                       1.4652331
   377   7 N      378   6 C                                       1.3709349
   378   6 C      379   6 C                                       1.3446329
   373   6 C      380   6 C                                       1.3951849
   380   6 C      381   6 C                                       1.4513292
   381   6 C      382   6 C                                       1.3492251
   380   6 C      383   7 N                                       1.3621378
   382   6 C      384   6 C                                       1.4487101
   383   7 N      384   6 C                                       1.3488316
   384   6 C      385   6 C                                       1.4096498
   385   6 C      386   6 C                                       1.4088978
   386   6 C      387   6 C                                       1.4182178
   387   6 C      388   6 C                                       1.3682382
   388   6 C      389   6 C                                       1.4209776
   386   6 C      390   7 N                                       1.3635028
   389   6 C      390   7 N                                       1.3698419
   389   6 C      391   6 C                                       1.3997045
   392   6 C      393   6 C                                       1.3413157
   394   6 C      395   7 N                                       1.4652154
   395   7 N      396   6 C                                       1.3709369
   396   6 C      397   6 C                                       1.3446123
   391   6 C      398   6 C                                       1.3951852
   398   6 C      399   6 C                                       1.4513530
   399   6 C      400   6 C                                       1.3492595
   367   6 C      401   6 C                                       1.4094609
   400   6 C      401   6 C                                       1.4487937
   398   6 C      402   7 N                                       1.3619867
   401   6 C      402   7 N                                       1.3488683
   369   6 C      403   1 H                                       1.0775777
   370   6 C      404   1 H                                       1.0777249
   372   7 N      405   1 H                                       1.0145378
   375   6 C      406   1 H                                       1.0838463
   376   6 C      407   1 H                                       1.1063793
   376   6 C      408   1 H                                       1.0985273
   377   7 N      409   1 H                                       1.0097887
   378   6 C      410   1 H                                       1.0853294
   379   6 C      411   1 H                                       1.0806437
   381   6 C      412   1 H                                       1.0781578
   382   6 C      413   1 H                                       1.0778968
   387   6 C      414   1 H                                       1.0774873
   388   6 C      415   1 H                                       1.0777240
   390   7 N      416   1 H                                       1.0145332
   393   6 C      417   1 H                                       1.0838529
   394   6 C      418   1 H                                       1.1063832
   394   6 C      419   1 H                                       1.0985723
   395   7 N      420   1 H                                       1.0097832
   396   6 C      421   1 H                                       1.0853227
   397   6 C      422   1 H                                       1.0806472
   399   6 C      423   1 H                                       1.0781703
   400   6 C      424   1 H                                       1.0779677
   425   6 C      426   6 C                                       1.4084820
   426   6 C      427   6 C                                       1.4180655
   427   6 C      428   6 C                                       1.3682347
   428   6 C      429   6 C                                       1.4210515
   426   6 C      430   7 N                                       1.3635683
   429   6 C      430   7 N                                       1.3697527
   429   6 C      431   6 C                                       1.3995145
   432   6 C      433   6 C                                       1.3409022
   434   6 C      435   7 N                                       1.4653886
   435   7 N      436   6 C                                       1.3708219
   436   6 C      437   6 C                                       1.3446588
   431   6 C      438   6 C                                       1.3950001
   438   6 C      439   6 C                                       1.4512791
   439   6 C      440   6 C                                       1.3491489
   438   6 C      441   7 N                                       1.3622908
   440   6 C      442   6 C                                       1.4485424
   441   7 N      442   6 C                                       1.3489345
   442   6 C      443   6 C                                       1.4099272
   443   6 C      444   6 C                                       1.4094834
   444   6 C      445   6 C                                       1.4179110
   445   6 C      446   6 C                                       1.3683795
   446   6 C      447   6 C                                       1.4207539
   444   6 C      448   7 N                                       1.3635136
   447   6 C      448   7 N                                       1.3698758
   447   6 C      449   6 C                                       1.3999545
   450   6 C      451   6 C                                       1.3416618
   452   6 C      453   7 N                                       1.4652622
   453   7 N      454   6 C                                       1.3712435
   454   6 C      455   6 C                                       1.3444771
   449   6 C      456   6 C                                       1.3954058
   456   6 C      457   6 C                                       1.4511578
   457   6 C      458   6 C                                       1.3494607
   425   6 C      459   6 C                                       1.4100408
   458   6 C      459   6 C                                       1.4487371
   456   6 C      460   7 N                                       1.3618906
   459   6 C      460   7 N                                       1.3487712
   427   6 C      461   1 H                                       1.0774805
   428   6 C      462   1 H                                       1.0777203
   430   7 N      463   1 H                                       1.0145383
   433   6 C      464   1 H                                       1.0838219
   434   6 C      465   1 H                                       1.1062877
   434   6 C      466   1 H                                       1.0985768
   435   7 N      467   1 H                                       1.0097875
   436   6 C      468   1 H                                       1.0853525
   437   6 C      469   1 H                                       1.0806613
   439   6 C      470   1 H                                       1.0781691
   440   6 C      471   1 H                                       1.0776957
   445   6 C      472   1 H                                       1.0772750
   446   6 C      473   1 H                                       1.0777122
   448   7 N      474   1 H                                       1.0144724
   451   6 C      475   1 H                                       1.0838690
   452   6 C      476   1 H                                       1.1063703
   452   6 C      477   1 H                                       1.0985151
   453   7 N      478   1 H                                       1.0098360
   454   6 C      479   1 H                                       1.0853451
   455   6 C      480   1 H                                       1.0806864
   457   6 C      481   1 H                                       1.0782019
   458   6 C      482   1 H                                       1.0779374
   483   6 C      484   6 C                                       1.4087733
   484   6 C      485   6 C                                       1.4180827
   485   6 C      486   6 C                                       1.3680342
   486   6 C      487   6 C                                       1.4210681
   484   6 C      488   7 N                                       1.3636794
   487   6 C      488   7 N                                       1.3700964
   487   6 C      489   6 C                                       1.3994286
   490   6 C      491   6 C                                       1.3411169
   492   6 C      493   7 N                                       1.4653916
   493   7 N      494   6 C                                       1.3709508
   494   6 C      495   6 C                                       1.3445971
   489   6 C      496   6 C                                       1.3955640
   496   6 C      497   6 C                                       1.4517750
   497   6 C      498   6 C                                       1.3491919
   496   6 C      499   7 N                                       1.3611243
   498   6 C      500   6 C                                       1.4493762
   499   7 N      500   6 C                                       1.3494050
   500   6 C      501   6 C                                       1.4080259
   501   6 C      502   6 C                                       1.4072844
   502   6 C      503   6 C                                       1.4186469
   503   6 C      504   6 C                                       1.3682711
   504   6 C      505   6 C                                       1.4212746
   502   6 C      506   7 N                                       1.3634464
   505   6 C      506   7 N                                       1.3694571
   505   6 C      507   6 C                                       1.3995891
   508   6 C      509   6 C                                       1.3414899
   510   6 C      511   7 N                                       1.4652225
   511   7 N      512   6 C                                       1.3711386
   512   6 C      513   6 C                                       1.3445444
   507   6 C      514   6 C                                       1.3955119
   514   6 C      515   6 C                                       1.4510614
   515   6 C      516   6 C                                       1.3493342
   483   6 C      517   6 C                                       1.4106340
   516   6 C      517   6 C                                       1.4488022
   514   6 C      518   7 N                                       1.3622245
   517   6 C      518   7 N                                       1.3487668
   485   6 C      519   1 H                                       1.0772621
   486   6 C      520   1 H                                       1.0776984
   488   7 N      521   1 H                                       1.0145452
   491   6 C      522   1 H                                       1.0838188
   492   6 C      523   1 H                                       1.1062615
   492   6 C      524   1 H                                       1.0985597
   493   7 N      525   1 H                                       1.0098261
   494   6 C      526   1 H                                       1.0853678
   495   6 C      527   1 H                                       1.0806971
   497   6 C      528   1 H                                       1.0781956
   498   6 C      529   1 H                                       1.0782772
   503   6 C      530   1 H                                       1.0778477
   504   6 C      531   1 H                                       1.0777346
   506   7 N      532   1 H                                       1.0145052
   509   6 C      533   1 H                                       1.0838524
   510   6 C      534   1 H                                       1.1064044
   510   6 C      535   1 H                                       1.0984360
   511   7 N      536   1 H                                       1.0098289
   512   6 C      537   1 H                                       1.0853605
   513   6 C      538   1 H                                       1.0806963
   515   6 C      539   1 H                                       1.0781957
   516   6 C      540   1 H                                       1.0777276

 * 4 distinct bonds (by element types)

   Z      Z             #   av. dist./Å        max./Å        min./Å
   1 H    6 C         164     1.0851570     1.1064478     1.0772369
   6 C    6 C         222     1.3891711     1.4520633     1.2168082
   1 H    7 N          36     1.0121730     1.0146927     1.0096874
   6 C    7 N         108     1.3800609     1.4655427     1.3486826


optimized geometry written to: xtbopt.xyz


           -------------------------------------------------
          | TOTAL ENERGY             -883.773325184198 Eh   |
          | GRADIENT NORM               0.000662882413 Eh/α |
          | HOMO-LUMO GAP               0.581041811166 eV   |
           -------------------------------------------------

------------------------------------------------------------------------
 * finished run on 2022/07/27 at 19:02:19.221     
------------------------------------------------------------------------
 total:
 * wall-time:     0 d,  2 h, 23 min, 57.711 sec
 *  cpu-time:     0 d,  2 h, 22 min, 58.451 sec
 * ratio c/w:     0.993 speedup
 SCF:
 * wall-time:     0 d,  0 h,  1 min, 29.950 sec
 *  cpu-time:     0 d,  0 h,  1 min, 29.223 sec
 * ratio c/w:     0.992 speedup
 ANC optimizer:
 * wall-time:     0 d,  2 h, 22 min, 26.767 sec
 *  cpu-time:     0 d,  2 h, 21 min, 28.362 sec
 * ratio c/w:     0.993 speedup

