      -----------------------------------------------------------      
     |                   =====================                   |     
     |                           x T B                           |     
     |                   =====================                   |     
     |                         S. Grimme                         |     
     |          Mulliken Center for Theoretical Chemistry        |     
     |                    University of Bonn                     |     
      -----------------------------------------------------------      

   * xtb version 6.5.1 (b24c23e) compiled by 'conda@728c89f4b128' on 2022-07-12

   xtb is free software: you can redistribute it and/or modify it under
   the terms of the GNU Lesser General Public License as published by
   the Free Software Foundation, either version 3 of the License, or
   (at your option) any later version.
   
   xtb is distributed in the hope that it will be useful,
   but WITHOUT ANY WARRANTY; without even the implied warranty of
   MERCHANTABILITY or FITNESS FOR A PARTICULAR PURPOSE.  See the
   GNU Lesser General Public License for more details.
   
   Cite this work as:
   * C. Bannwarth, E. Caldeweyher, S. Ehlert, A. Hansen, P. Pracht,
     J. Seibert, S. Spicher, S. Grimme, WIREs Comput. Mol. Sci., 2020, 11,
     e01493. DOI: 10.1002/wcms.1493
   
   for GFN2-xTB:
   * C. Bannwarth, S. Ehlert and S. Grimme., J. Chem. Theory Comput., 2019,
     15, 1652-1671. DOI: 10.1021/acs.jctc.8b01176
   for GFN1-xTB:
   * S. Grimme, C. Bannwarth, P. Shushkov, J. Chem. Theory Comput., 2017,
     13, 1989-2009. DOI: 10.1021/acs.jctc.7b00118
   for GFN0-xTB:
   * P. Pracht, E. Caldeweyher, S. Ehlert, S. Grimme, ChemRxiv, 2019, preprint.
     DOI: 10.26434/chemrxiv.8326202.v1
   for GFN-FF:
   * S. Spicher and S. Grimme, Angew. Chem. Int. Ed., 2020, 59, 15665-15673.
     DOI: 10.1002/anie.202004239
   
   for ALPB and GBSA implicit solvation:
   * S. Ehlert, M. Stahn, S. Spicher, S. Grimme, J. Chem. Theory Comput.,
     2021, 17, 4250-4261. DOI: 10.1021/acs.jctc.1c00471
   
   for DFT-D4:
   * E. Caldeweyher, C. Bannwarth and S. Grimme, J. Chem. Phys., 2017,
     147, 034112. DOI: 10.1063/1.4993215
   * E. Caldeweyher, S. Ehlert, A. Hansen, H. Neugebauer, S. Spicher,
     C. Bannwarth and S. Grimme, J. Chem. Phys., 2019, 150, 154122.
     DOI: 10.1063/1.5090222
   * E. Caldeweyher, J.-M. Mewes, S. Ehlert and S. Grimme, Phys. Chem. Chem. Phys.
     2020, 22, 8499-8512. DOI: 10.1039/D0CP00502A
   
   for sTDA-xTB:
   * S. Grimme and C. Bannwarth, J. Chem. Phys., 2016, 145, 054103.
     DOI: 10.1063/1.4959605
   
   in the mass-spec context:
   * V. Asgeirsson, C. Bauer and S. Grimme, Chem. Sci., 2017, 8, 4879.
     DOI: 10.1039/c7sc00601b
   * J. Koopman and S. Grimme, ACS Omega 2019, 4, 12, 15120-15133.
     DOI: 10.1021/acsomega.9b02011
   
   for metadynamics refer to:
   * S. Grimme, J. Chem. Theory Comput., 2019, 155, 2847-2862
     DOI: 10.1021/acs.jctc.9b00143
   
   for SPH calculations refer to:
   * S. Spicher and S. Grimme, J. Chem. Theory Comput., 2021, 17, 1701-1714
     DOI: 10.1021/acs.jctc.0c01306
   
   with help from (in alphabetical order)
   P. Atkinson, C. Bannwarth, F. Bohle, G. Brandenburg, E. Caldeweyher
   M. Checinski, S. Dohm, S. Ehlert, S. Ehrlich, I. Gerasimov, C. Hölzer
   A. Katbashev, J. Koopman, C. Lavigne, S. Lehtola, F. März, M. Müller,
   F. Musil, H. Neugebauer, J. Pisarek, C. Plett, P. Pracht, F. Pultar,
   J. Seibert, P. Shushkov, S. Spicher, M. Stahn, M. Steiner, T. Strunk,
   J. Stückrath, T. Rose, and J. Unsleber
   
 * started run on 2022/07/29 at 23:08:44.971     

           -------------------------------------------------
          |                Calculation Setup                |
           -------------------------------------------------

          program call               : xtb Co_Py_C8_3.xyz --gfn 1 --opt -T 48
          hostname                   : cx3-14-19.cx3.hpc.ic.ac.uk
          coordinate file            : Co_Py_C8_3.xyz
          omp threads                :                     1

   ID    Z sym.   atoms
    1   27 Co     1, 55, 125
    2    6 C      2-6, 8-11, 13-17, 19-24, 26-29, 31-36, 56-60, 62-65, 67-71,
                  73-78, 80-83, 85-90, 109-124, 126-130, 132-135, 137-141,
                  143-148, 150-153, 155-160
    3    7 N      7, 12, 18, 25, 30, 37, 61, 66, 72, 79, 84, 91, 131, 136,
                  142, 149, 154, 161
    4    1 H      38-54, 92-108, 162-177

molecular fragmentation (1/2 indicates fragments):
111111111111111111111111111111111111111111111111111111222222222222222222
222222222222222222222222222222222222222222222222222222222222222222222222
222222222222222222222222222222222
# atoms in fragment 1/2:    54   123
 fragment masses (1/2) :      520.43     1232.02
CMA distance (Bohr)    :  53.492
constraining FC (au)   :  0.0500
########################################################################
[WARNING] Please study the warnings concerning your input carefully
-1- prog_main_parseArguments: Unknown option '-T' provided
########################################################################

           -------------------------------------------------
          |                 G F N 1 - x T B                 |
           -------------------------------------------------

        Reference                      10.1021/acs.jctc.7b00118
      * Hamiltonian:
        H0-scaling (s, p, d)           1.850000    2.250000    2.000000
        zeta-weighting                 0.000000
      * Dispersion:
        s8                             2.400000
        a1                             0.630000
        a2                             5.000000
        s9                             0.000000
      * Repulsion:
        kExp                           1.500000
        rExp                           1.000000
      * Coulomb:
        alpha                          2.000000
        third order                    atomic
        anisotropic                    false
      * Halogen bond correction:
        rad-scale                      1.300000
        damping                        0.440000


          ...................................................
          :                      SETUP                      :
          :.................................................:
          :  # basis functions                 626          :
          :  # atomic orbitals                 623          :
          :  # shells                          357          :
          :  # electrons                       591          :
          :  # halogen bonds                     0          :
          :  max. iterations                   250          :
          :  Hamiltonian                  GFN1-xTB          :
          :  restarted?                      false          :
          :  GBSA solvation                  false          :
          :  PC potential                    false          :
          :  electronic temp.          300.0000000     K    :
          :  accuracy                    1.0000000          :
          :  -> integral cutoff          0.2500000E+02      :
          :  -> integral neglect         0.1000000E-07      :
          :  -> SCF convergence          0.1000000E-05 Eh   :
          :  -> wf. convergence          0.2000000E-04 e    :
          :  Broyden damping             0.4000000          :
          ...................................................

 iter      E             dE          RMSdq      gap      omega  full diag
   1   -321.0135922 -0.321014E+03  0.110E+01    0.02       0.0  T
   2   -266.5306938  0.544829E+02  0.124E+01    0.07       1.0  T
   3   -285.9612235 -0.194305E+02  0.827E+00    0.07       1.0  T
   4    331.8474741  0.617809E+03  0.147E+01    0.11       1.0  T
   5    718.5867930  0.386739E+03  0.165E+01    0.03       1.0  T
   6   -232.8605894 -0.951447E+03  0.757E+00    0.02       1.0  T
   7   -311.3912497 -0.785307E+02  0.497E+00    0.09       1.0  T
   8   -311.4638457 -0.725960E-01  0.412E+00    0.19       1.0  T
   9   -317.1760304 -0.571218E+01  0.394E+00    0.03       1.0  T
  10   -321.0925311 -0.391650E+01  0.325E+00    0.10       1.0  T
  11   -321.0152192  0.773119E-01  0.313E+00    0.13       1.0  T
  12   -321.0904849 -0.752658E-01  0.297E+00    0.19       1.0  T
  13   -321.1718443 -0.813593E-01  0.290E+00    0.04       1.0  T
  14   -321.2649687 -0.931244E-01  0.269E+00    0.06       1.0  T
  15   -321.8386771 -0.573708E+00  0.244E+00    0.01       1.0  T
  16   -321.2249589  0.613718E+00  0.239E+00    0.04       1.0  T
  17   -321.9968149 -0.771856E+00  0.217E+00    0.11       1.0  T
  18   -322.1623212 -0.165506E+00  0.191E+00    0.11       1.0  T
  19   -322.1060499  0.562713E-01  0.187E+00    0.10       1.0  T
  20   -322.2940115 -0.187962E+00  0.176E+00    0.17       1.0  T
  21   -321.9869665  0.307045E+00  0.168E+00    0.05       1.0  T
  22   -322.4984168 -0.511450E+00  0.132E+00    0.14       1.0  T
  23   -322.5061651 -0.774833E-02  0.128E+00    0.11       1.0  T
  24   -322.4100276  0.961375E-01  0.106E+00    0.12       1.0  T
  25   -322.3996455  0.103820E-01  0.103E+00    0.13       1.0  T
  26   -322.3911948  0.845073E-02  0.101E+00    0.13       1.0  T
  27   -322.4472321 -0.560373E-01  0.861E-01    0.06       1.0  T
  28   -322.7074089 -0.260177E+00  0.638E-01    0.05       1.0  T
  29   -321.7915747  0.915834E+00  0.144E+00    0.04       1.0  T
  30   -322.3300808 -0.538506E+00  0.148E+00    0.02       1.0  T
  31   -322.7628395 -0.432759E+00  0.103E+00    0.02       1.0  T
  32   -322.5173766  0.245463E+00  0.128E+00    0.01       1.0  T
  33   -322.8830269 -0.365650E+00  0.836E-01    0.03       1.0  T
  34   -322.8243263  0.587006E-01  0.873E-01    0.02       1.0  T
  35   -322.9181414 -0.938151E-01  0.692E-01    0.03       1.0  T
  36   -322.9497076 -0.315662E-01  0.625E-01    0.03       1.0  T
  37   -323.0911831 -0.141475E+00  0.187E-01    0.05       1.0  T
  38   -323.0250686  0.661145E-01  0.472E-01    0.06       1.0  T
  39   -323.0822052 -0.571366E-01  0.270E-01    0.06       1.0  T
  40   -323.1074328 -0.252276E-01  0.122E-01    0.07       1.0  T
  41   -323.1089165 -0.148372E-02  0.124E-01    0.08       1.0  T
  42   -323.1125341 -0.361763E-02  0.579E-02    0.07       1.0  T
  43   -323.1105141  0.202004E-02  0.102E-01    0.08       1.0  T
  44   -323.1134708 -0.295669E-02  0.426E-02    0.07       1.0  T
  45   -323.1110902  0.238055E-02  0.920E-02    0.08       1.0  T
  46   -323.1140334 -0.294320E-02  0.313E-02    0.08       1.0  T
  47   -323.1138387  0.194666E-03  0.373E-02    0.07       1.0  T
  48   -323.1137865  0.522437E-04  0.395E-02    0.07       1.0  T
  49   -323.1139384 -0.151911E-03  0.344E-02    0.07       1.0  T
  50   -323.1140969 -0.158515E-03  0.286E-02    0.08       1.0  T
  51   -323.1143018 -0.204874E-03  0.174E-02    0.08       1.0  T
  52   -323.1143222 -0.204414E-04  0.158E-02    0.08       1.0  T
  53   -323.1143724 -0.501442E-04  0.108E-02    0.08       1.0  T
  54   -323.1143801 -0.770469E-05  0.983E-03    0.08       1.0  T
  55   -323.1143788  0.132040E-05  0.968E-03    0.08       1.0  T
  56   -323.1144045 -0.257675E-04  0.503E-03    0.08       1.5  T
  57   -323.1144003  0.419287E-05  0.588E-03    0.08       1.3  T
  58   -323.1144098 -0.941212E-05  0.311E-03    0.08       2.4  T
  59   -323.1144104 -0.662996E-06  0.298E-03    0.08       2.5  T
  60   -323.1144122 -0.173780E-05  0.186E-03    0.08       4.1  T
  61   -323.1144130 -0.842843E-06  0.706E-04    0.08      10.7  T
  62   -323.1144131 -0.996102E-07  0.371E-04    0.08      20.3  T
  63   -323.1144131 -0.102672E-07  0.277E-04    0.08      27.1  T
  64   -323.1144131  0.413507E-08  0.309E-04    0.08      24.3  T
  65   -323.1144131 -0.404714E-07  0.845E-05    0.08      89.0  T
  66   -323.1144131 -0.243602E-08  0.428E-05    0.08     175.7  T

   *** convergence criteria satisfied after 66 iterations ***

         #    Occupation            Energy/Eh            Energy/eV
      -------------------------------------------------------------
         1        2.0000           -0.7857980             -21.3827
       ...           ...                  ...                  ...
       290        1.9961           -0.3873574             -10.5405
       291        1.9899           -0.3864422             -10.5156
       292        1.9628           -0.3851901             -10.4816
       293        1.9098           -0.3843138             -10.4577
       294        1.6624           -0.3828844             -10.4188
       295        1.5524           -0.3825305             -10.4092
       296        1.4142           -0.3821585             -10.3991 (HOMO)
       297        0.2717           -0.3793264             -10.3220 (LUMO)
       298        0.2137           -0.3790563             -10.3146
       299        0.0272           -0.3769711             -10.2579
       300                         -0.3639282              -9.9030
       301                         -0.3421983              -9.3117
       ...                                ...                  ...
       623                          2.3357760              63.5597
      -------------------------------------------------------------
                  HL-Gap            0.0028320 Eh            0.0771 eV
             Fermi-level           -0.3812332 Eh          -10.3739 eV

 SCC (total)                   0 d,  0 h,  0 min, 13.915 sec
 SCC setup                      ...        0 min,  0.013 sec (  0.097%)
 Dispersion                     ...        0 min,  0.010 sec (  0.075%)
 classical contributions        ...        0 min,  0.003 sec (  0.021%)
 integral evaluation            ...        0 min,  0.345 sec (  2.478%)
 iterations                     ...        0 min, 12.716 sec ( 91.379%)
 molecular gradient             ...        0 min,  0.781 sec (  5.614%)
 printout                       ...        0 min,  0.047 sec (  0.336%)

         :::::::::::::::::::::::::::::::::::::::::::::::::::::
         ::                     SUMMARY                     ::
         :::::::::::::::::::::::::::::::::::::::::::::::::::::
         :: total energy            -317.520882970746 Eh    ::
         :: gradient norm              1.312714549900 Eh/a0 ::
         :: HOMO-LUMO gap              0.077063861073 eV    ::
         ::.................................................::
         :: SCC energy              -323.114413145185 Eh    ::
         :: -> electrostatic           0.266534242052 Eh    ::
         :: repulsion energy           5.748453143963 Eh    ::
         :: dispersion energy         -0.154922969524 Eh    ::
         :: halogen bond corr.         0.000000000000 Eh    ::
         :: add. restraining           0.000000000000 Eh    ::
         :: total charge               0.000000000261 e     ::
         :::::::::::::::::::::::::::::::::::::::::::::::::::::

      ----------------------------------------------------------- 
     |                   =====================                   |
     |                        A N C O P T                        |
     |                   =====================                   |
     |               Approximate Normal Coordinate               |
     |                Rational Function Optimizer                |
      ----------------------------------------------------------- 

          ...................................................
          :                      SETUP                      :
          :.................................................:
          :   optimization level            normal          :
          :   max. optcycles                   531          :
          :   ANC micro-cycles                  20          :
          :   degrees of freedom               525          :
          :.................................................:
          :   RF solver                   davidson          :
          :   write xtbopt.log                true          :
          :   linear?                        false          :
          :   energy convergence         0.5000000E-05 Eh   :
          :   grad. convergence          0.1000000E-02 Eh/α :
          :   maximium RF displ.         1.0000000          :
          :   Hlow (freq-cutoff)         0.1000000E-01      :
          :   Hmax (freq-cutoff)         5.0000000          :
          :   S6 in model hess.         20.0000000          :
          ...................................................

generating ANC from model Hessian ...
Using Lindh-Hessian (1995)
 Shifting diagonal of input Hessian by    1.0106985156409036E-002
 Lowest  eigenvalues of input Hessian
    0.010000    0.010022    0.010085    0.010087    0.010088    0.010090
    0.010091    0.010099    0.010103    0.000000    0.000000    0.000000
    0.000000    0.000000    0.000000    0.010108    0.010113    0.010117
 Highest eigenvalues
    2.687951    2.750823    3.036949    3.079554    3.247398    3.437891


........................................................................
.............................. CYCLE    1 ..............................
........................................................................
   1   -323.1144131 -0.323114E+03  0.385E-05    0.08       0.0  T
   2   -323.1144111  0.201615E-05  0.205E-03    0.08       3.7  T
   3   -323.1144131 -0.200292E-05  0.165E-04    0.08      45.5  T
   4   -323.1144131 -0.585743E-08  0.119E-04    0.08      63.4  T
   5   -323.1144131  0.293404E-07  0.254E-04    0.08      29.6  T
   6   -323.1144131 -0.255023E-07  0.127E-04    0.08      59.1  T
     SCC iter.                  ...        0 min,  1.158 sec
     gradient                   ...        0 min,  0.781 sec
 * total energy  :  -317.5208830 Eh     change        0.1111715E-07 Eh
   gradient norm :     1.3127144 Eh/α   predicted     0.0000000E+00 (-100.00%)
   displ. norm   :     0.4727788 α      lambda       -0.5624356E+00
   maximum displ.:     0.2436361 α      in ANC's #522, #523, #521, ...

........................................................................
.............................. CYCLE    2 ..............................
........................................................................
   1   -322.9883518 -0.322988E+03  0.524E-01    0.00       0.0  T
   2   -319.5260963  0.346226E+01  0.223E+00    0.57       1.0  T
   3   -321.4173173 -0.189122E+01  0.142E+00    0.17       1.0  T
   4   -321.9569718 -0.539654E+00  0.156E+00    0.10       1.0  T
   5   -322.2354876 -0.278516E+00  0.103E+00    0.02       1.0  T
   6   -322.8569268 -0.621439E+00  0.781E-01    0.14       1.0  T
   7   -322.8675956 -0.106688E-01  0.661E-01    0.12       1.0  T
   8   -322.5223919  0.345204E+00  0.111E+00    0.03       1.0  T
   9   -323.0311326 -0.508741E+00  0.402E-01    0.13       1.0  T
  10   -323.0337540 -0.262145E-02  0.362E-01    0.11       1.0  T
  11   -323.0107647  0.229894E-01  0.370E-01    0.07       1.0  T
  12   -323.0421357 -0.313710E-01  0.300E-01    0.13       1.0  T
  13   -323.0721270 -0.299913E-01  0.186E-01    0.08       1.0  T
  14   -323.0553038  0.168233E-01  0.262E-01    0.06       1.0  T
  15   -323.0762964 -0.209926E-01  0.131E-01    0.10       1.0  T
  16   -323.0769087 -0.612315E-03  0.132E-01    0.08       1.0  T
  17   -323.0716505  0.525819E-02  0.151E-01    0.07       1.0  T
  18   -323.0792298 -0.757921E-02  0.924E-02    0.07       1.0  T
  19   -323.0780995  0.113027E-02  0.114E-01    0.08       1.0  T
  20   -323.0810390 -0.293948E-02  0.851E-02    0.08       1.0  T
  21   -323.0839038 -0.286487E-02  0.375E-02    0.07       1.0  T
  22   -323.0842118 -0.307950E-03  0.276E-02    0.06       1.0  T
  23   -323.0844129 -0.201130E-03  0.198E-02    0.06       1.0  T
  24   -323.0844008  0.120820E-04  0.201E-02    0.07       1.0  T
  25   -323.0845851 -0.184244E-03  0.493E-03    0.07       1.5  T
  26   -323.0845893 -0.421021E-05  0.408E-03    0.07       1.8  T
  27   -323.0845956 -0.627406E-05  0.185E-03    0.07       4.1  T
  28   -323.0845969 -0.134576E-05  0.783E-04    0.07       9.6  T
  29   -323.0845971 -0.217661E-06  0.395E-04    0.07      19.0  T
  30   -323.0845972 -0.610848E-07  0.170E-04    0.07      44.2  T
  31   -323.0845972 -0.145515E-07  0.283E-05    0.07     265.5  T
     SCC iter.                  ...        0 min,  5.973 sec
     gradient                   ...        0 min,  0.783 sec
 * total energy  :  -317.8913374 Eh     change       -0.3704544E+00 Eh
   gradient norm :     0.5046474 Eh/α   predicted    -0.3440822E+00 (  -7.12%)
   displ. norm   :     0.4910427 α      lambda       -0.1951220E+00
   maximum displ.:     0.1208794 α      in ANC's #522, #343, #523, ...

........................................................................
.............................. CYCLE    3 ..............................
........................................................................
   1   -323.1133534 -0.323113E+03  0.556E-01    0.00       0.0  T
   2   -320.2342963  0.287906E+01  0.214E+00    0.20       1.0  T
   3   -321.5627149 -0.132842E+01  0.143E+00    0.11       1.0  T
   4   -322.5924418 -0.102973E+01  0.118E+00    0.07       1.0  T
   5   -322.8520566 -0.259615E+00  0.950E-01    0.04       1.0  T
   6   -321.1218874  0.173017E+01  0.195E+00    0.03       1.0  T
   7   -322.7126684 -0.159078E+01  0.102E+00    0.02       1.0  T
   8   -323.1280303 -0.415362E+00  0.507E-01    0.10       1.0  T
   9   -323.1998732 -0.718429E-01  0.270E-01    0.07       1.0  T
  10   -322.9841857  0.215687E+00  0.709E-01    0.05       1.0  T
  11   -323.1232250 -0.139039E+00  0.458E-01    0.01       1.0  T
  12   -323.1088233  0.144017E-01  0.476E-01    0.04       1.0  T
  13   -323.1971037 -0.882804E-01  0.246E-01    0.05       1.0  T
  14   -323.2032695 -0.616579E-02  0.251E-01    0.02       1.0  T
  15   -323.2040438 -0.774299E-03  0.237E-01    0.01       1.0  T
  16   -323.2263216 -0.222778E-01  0.927E-02    0.04       1.0  T
  17   -323.2250107  0.131086E-02  0.100E-01    0.04       1.0  T
  18   -323.2288959 -0.388514E-02  0.485E-02    0.03       1.0  T
  19   -323.2284072  0.488714E-03  0.694E-02    0.03       1.0  T
  20   -323.2301131 -0.170595E-02  0.255E-02    0.03       1.0  T
  21   -323.2300225  0.906302E-04  0.354E-02    0.03       1.0  T
  22   -323.2303075 -0.285010E-03  0.202E-02    0.03       1.0  T
  23   -323.2303578 -0.502774E-04  0.197E-02    0.03       1.0  T
  24   -323.2305225 -0.164699E-03  0.389E-03    0.03       1.9  T
  25   -323.2305208  0.166958E-05  0.444E-03    0.03       1.7  T
  26   -323.2305273 -0.654778E-05  0.193E-03    0.03       3.9  T
  27   -323.2305285 -0.115835E-05  0.118E-03    0.03       6.4  T
  28   -323.2305290 -0.509348E-06  0.438E-04    0.03      17.2  T
  29   -323.2305290  0.256479E-07  0.486E-04    0.03      15.5  T
  30   -323.2305291 -0.862025E-07  0.198E-04    0.03      38.0  T
  31   -323.2305291 -0.204028E-07  0.276E-05    0.03     272.7  T
     SCC iter.                  ...        0 min,  5.928 sec
     gradient                   ...        0 min,  0.773 sec
 * total energy  :  -318.0140925 Eh     change       -0.1227551E+00 Eh
   gradient norm :     0.2012938 Eh/α   predicted    -0.1210854E+00 (  -1.36%)
   displ. norm   :     0.6027283 α      lambda       -0.7263069E-01
   maximum displ.:     0.1824223 α      in ANC's #89, #149, #152, ...

........................................................................
.............................. CYCLE    4 ..............................
........................................................................
   1   -323.2268587 -0.323227E+03  0.331E-01    0.00       0.0  T
   2   -321.8034045  0.142345E+01  0.166E+00    0.19       1.0  T
   3   -323.0711029 -0.126770E+01  0.653E-01    0.15       1.0  T
   4   -322.9757203  0.953827E-01  0.835E-01    0.04       1.0  T
   5   -323.1454374 -0.169717E+00  0.524E-01    0.03       1.0  T
   6   -322.9705908  0.174847E+00  0.783E-01    0.03       1.0  T
   7   -323.2067654 -0.236175E+00  0.437E-01    0.02       1.0  T
   8   -323.2517323 -0.449669E-01  0.245E-01    0.01       1.0  T
   9   -323.2359121  0.158203E-01  0.293E-01    0.01       1.0  T
  10   -323.2205053  0.154067E-01  0.365E-01    0.02       1.0  T
  11   -323.2543722 -0.338669E-01  0.215E-01    0.02       1.0  T
  12   -323.2739802 -0.196080E-01  0.370E-02    0.02       1.0  T
  13   -323.2678879  0.609228E-02  0.124E-01    0.01       1.0  T
  14   -323.2727040 -0.481605E-02  0.626E-02    0.02       1.0  T
  15   -323.2737780 -0.107398E-02  0.422E-02    0.01       1.0  T
  16   -323.2744652 -0.687219E-03  0.156E-02    0.02       1.0  T
  17   -323.2745375 -0.723068E-04  0.722E-03    0.02       1.0  T
  18   -323.2745532 -0.157467E-04  0.436E-03    0.02       1.7  T
  19   -323.2745592 -0.600678E-05  0.208E-03    0.02       3.6  T
  20   -323.2745586  0.627397E-06  0.223E-03    0.02       3.4  T
  21   -323.2745604 -0.181292E-05  0.908E-04    0.02       8.3  T
  22   -323.2745608 -0.349120E-06  0.234E-04    0.02      32.2  T
  23   -323.2745608 -0.372739E-08  0.219E-04    0.02      34.3  T
  24   -323.2745608 -0.124693E-07  0.142E-04    0.02      53.1  T
  25   -323.2745608 -0.835428E-08  0.393E-05    0.02     191.3  T
     SCC iter.                  ...        0 min,  4.741 sec
     gradient                   ...        0 min,  0.780 sec
 * total energy  :  -318.0649324 Eh     change       -0.5083999E-01 Eh
   gradient norm :     0.1000789 Eh/α   predicted    -0.4950817E-01 (  -2.62%)
   displ. norm   :     0.6784065 α      lambda       -0.3740234E-01
   maximum displ.:     0.2481315 α      in ANC's #89, #57, #138, ...

........................................................................
.............................. CYCLE    5 ..............................
........................................................................
   1   -323.2626662 -0.323263E+03  0.284E-01    0.01       0.0  T
   2   -322.4355132  0.827153E+00  0.136E+00    0.26       1.0  T
   3   -322.8962002 -0.460687E+00  0.937E-01    0.10       1.0  T
   4   -323.0380941 -0.141894E+00  0.729E-01    0.05       1.0  T
   5   -323.1732677 -0.135174E+00  0.520E-01    0.01       1.0  T
   6   -323.0942565  0.790113E-01  0.631E-01    0.05       1.0  T
   7   -323.2318867 -0.137630E+00  0.359E-01    0.02       1.0  T
   8   -323.2854630 -0.535763E-01  0.999E-02    0.02       1.0  T
   9   -323.2788271  0.663589E-02  0.157E-01    0.03       1.0  T
  10   -323.2594629  0.193642E-01  0.251E-01    0.01       1.0  T
  11   -323.2858715 -0.264086E-01  0.924E-02    0.02       1.0  T
  12   -323.2896719 -0.380036E-02  0.142E-02    0.02       1.0  T
  13   -323.2893899  0.282034E-03  0.283E-02    0.02       1.0  T
  14   -323.2897087 -0.318888E-03  0.129E-02    0.02       1.0  T
  15   -323.2897701 -0.613230E-04  0.582E-03    0.02       1.3  T
  16   -323.2897805 -0.104154E-04  0.363E-03    0.02       2.1  T
  17   -323.2897850 -0.449828E-05  0.177E-03    0.02       4.3  T
  18   -323.2897865 -0.154940E-05  0.153E-04    0.02      49.2  T
  19   -323.2897865  0.150222E-07  0.242E-04    0.02      31.1  T
  20   -323.2897865 -0.250226E-07  0.664E-05    0.02     113.2  T
  21   -323.2897865  0.875502E-09  0.787E-05    0.02      95.5  T
     SCC iter.                  ...        0 min,  4.028 sec
     gradient                   ...        0 min,  0.778 sec
 * total energy  :  -318.0931967 Eh     change       -0.2826422E-01 Eh
   gradient norm :     0.0659032 Eh/α   predicted    -0.2730812E-01 (  -3.38%)
   displ. norm   :     0.7812065 α      lambda       -0.2723940E-01
   maximum displ.:     0.3209149 α      in ANC's #89, #57, #56, ...

........................................................................
.............................. CYCLE    6 ..............................
........................................................................
   1   -323.2618824 -0.323262E+03  0.218E-01    0.01       0.0  T
   2   -322.6697775  0.592105E+00  0.121E+00    0.36       1.0  T
   3   -322.8372339 -0.167456E+00  0.948E-01    0.08       1.0  T
   4   -323.0344296 -0.197196E+00  0.755E-01    0.07       1.0  T
   5   -323.1086994 -0.742698E-01  0.613E-01    0.03       1.0  T
   6   -323.2410269 -0.132328E+00  0.283E-01    0.03       1.0  T
   7   -323.1914754  0.495515E-01  0.420E-01    0.02       1.0  T
   8   -323.2603059 -0.688305E-01  0.174E-01    0.04       1.0  T
   9   -323.2748783 -0.145724E-01  0.462E-02    0.01       1.0  T
  10   -323.2707875  0.409073E-02  0.101E-01    0.01       1.0  T
  11   -323.2734455 -0.265800E-02  0.684E-02    0.03       1.0  T
  12   -323.2745730 -0.112749E-02  0.519E-02    0.02       1.0  T
  13   -323.2757420 -0.116897E-02  0.153E-02    0.02       1.0  T
  14   -323.2758483 -0.106279E-03  0.330E-03    0.02       2.3  T
  15   -323.2758455  0.275727E-05  0.421E-03    0.02       1.8  T
  16   -323.2758518 -0.627627E-05  0.176E-03    0.02       4.3  T
  17   -323.2758533 -0.153779E-05  0.538E-04    0.02      14.0  T
  18   -323.2758534 -0.996907E-07  0.267E-04    0.02      28.1  T
  19   -323.2758535 -0.279526E-07  0.129E-04    0.02      58.2  T
  20   -323.2758535 -0.664613E-08  0.483E-05    0.02     155.8  T
     SCC iter.                  ...        0 min,  4.105 sec
     gradient                   ...        0 min,  0.786 sec
 * total energy  :  -318.1182879 Eh     change       -0.2509122E-01 Eh
   gradient norm :     0.0613442 Eh/α   predicted    -0.2193158E-01 ( -12.59%)
   displ. norm   :     0.9174746 α      lambda       -0.3085352E-01
   maximum displ.:     0.3952717 α      in ANC's #89, #57, #56, ...

........................................................................
.............................. CYCLE    7 ..............................
........................................................................
   1   -323.2324047 -0.323232E+03  0.170E-01    0.01       0.0  T
   2   -322.9843791  0.248026E+00  0.792E-01    0.23       1.0  T
   3   -322.6436576  0.340721E+00  0.111E+00    0.15       1.0  T
   4   -322.9501446 -0.306487E+00  0.768E-01    0.12       1.0  T
   5   -323.1652256 -0.215081E+00  0.442E-01    0.01       1.0  T
   6   -323.1845864 -0.193608E-01  0.327E-01    0.00       1.0  T
   7   -323.0673704  0.117216E+00  0.613E-01    0.10       1.0  T
   8   -323.2246870 -0.157317E+00  0.187E-01    0.01       1.0  T
   9   -323.2199369  0.475018E-02  0.209E-01    0.01       1.0  T
  10   -323.2297735 -0.983662E-02  0.151E-01    0.03       1.0  T
  11   -323.2346846 -0.491117E-02  0.113E-01    0.01       1.0  T
  12   -323.2402117 -0.552702E-02  0.337E-02    0.02       1.0  T
  13   -323.2406871 -0.475392E-03  0.119E-02    0.02       1.0  T
  14   -323.2407425 -0.554104E-04  0.471E-03    0.02       1.6  T
  15   -323.2407446 -0.210694E-05  0.427E-03    0.02       1.8  T
  16   -323.2407524 -0.782841E-05  0.968E-04    0.02       7.8  T
  17   -323.2407529 -0.459550E-06  0.206E-04    0.02      36.5  T
  18   -323.2407529 -0.156348E-08  0.193E-04    0.02      38.9  T
  19   -323.2407529  0.167023E-08  0.206E-04    0.02      36.5  T
  20   -323.2407529 -0.158176E-07  0.899E-05    0.02      83.6  T
     SCC iter.                  ...        0 min,  3.898 sec
     gradient                   ...        0 min,  0.788 sec
 * total energy  :  -318.1499547 Eh     change       -0.3166679E-01 Eh
   gradient norm :     0.0752076 Eh/α   predicted    -0.2841238E-01 ( -10.28%)
   displ. norm   :     0.9054694 α      lambda       -0.3434506E-01
   maximum displ.:     0.4079964 α      in ANC's #89, #57, #56, ...

........................................................................
.............................. CYCLE    8 ..............................
........................................................................
   1   -323.2069525 -0.323207E+03  0.122E-01    0.00       0.0  T
   2   -322.3737488  0.833204E+00  0.131E+00    0.20       1.0  T
   3   -323.0971501 -0.723401E+00  0.554E-01    0.01       1.0  T
   4   -322.4606454  0.636505E+00  0.126E+00    0.20       1.0  T
   5   -323.1947291 -0.734084E+00  0.187E-01    0.01       1.0  T
   6   -323.1814274  0.133018E-01  0.271E-01    0.03       1.0  T
   7   -323.0836727  0.977546E-01  0.515E-01    0.00       1.0  T
   8   -323.1595683 -0.758956E-01  0.334E-01    0.02       1.0  T
   9   -323.1786313 -0.190630E-01  0.268E-01    0.01       1.0  T
  10   -323.2080288 -0.293975E-01  0.949E-02    0.00       1.0  T
  11   -323.2092400 -0.121124E-02  0.791E-02    0.02       1.0  T
  12   -323.2120168 -0.277676E-02  0.241E-02    0.01       1.0  T
  13   -323.2122523 -0.235591E-03  0.827E-03    0.01       1.0  T
  14   -323.2122767 -0.243564E-04  0.358E-03    0.01       2.1  T
  15   -323.2122823 -0.563177E-05  0.103E-03    0.01       7.3  T
  16   -323.2122823  0.110269E-07  0.119E-03    0.01       6.3  T
  17   -323.2122829 -0.581681E-06  0.244E-04    0.01      30.8  T
  18   -323.2122828  0.146521E-06  0.601E-04    0.01      12.5  T
  19   -323.2122829 -0.111768E-06  0.368E-04    0.01      20.4  T
  20   -323.2122829 -0.640017E-07  0.757E-05    0.01      99.3  T
  21   -323.2122829 -0.267119E-08  0.179E-05    0.01     419.1  T
     SCC iter.                  ...        0 min,  4.082 sec
     gradient                   ...        0 min,  0.787 sec
 * total energy  :  -318.1874012 Eh     change       -0.3744653E-01 Eh
   gradient norm :     0.0985041 Eh/α   predicted    -0.3125188E-01 ( -16.54%)
   displ. norm   :     0.8735713 α      lambda       -0.4173348E-01
   maximum displ.:     0.4046175 α      in ANC's #89, #57, #56, ...

........................................................................
.............................. CYCLE    9 ..............................
........................................................................
   1   -323.1820381 -0.323182E+03  0.110E-01    0.00       0.0  T
   2   -321.9704169  0.121162E+01  0.165E+00    0.25       1.0  T
   3   -322.9589525 -0.988536E+00  0.679E-01    0.06       1.0  T
   4   -322.8719404  0.870121E-01  0.825E-01    0.04       1.0  T
   5   -323.0944154 -0.222475E+00  0.431E-01    0.00       1.0  T
   6   -323.1573914 -0.629759E-01  0.263E-01    0.03       1.0  T
   7   -322.9653007  0.192091E+00  0.679E-01    0.02       1.0  T
   8   -323.1817014 -0.216401E+00  0.107E-01    0.00       1.0  T
   9   -323.1868725 -0.517106E-02  0.157E-02    0.01       1.0  T
  10   -323.1861621  0.710373E-03  0.416E-02    0.01       1.0  T
  11   -323.1867273 -0.565226E-03  0.229E-02    0.00       1.0  T
  12   -323.1868024 -0.750864E-04  0.193E-02    0.00       1.0  T
  13   -323.1869832 -0.180744E-03  0.208E-03    0.01       3.6  T
  14   -323.1869691  0.140661E-04  0.572E-03    0.01       1.3  T
  15   -323.1869822 -0.130844E-04  0.254E-03    0.01       3.0  T
  16   -323.1869849 -0.273347E-05  0.105E-03    0.01       7.1  T
  17   -323.1869854 -0.461516E-06  0.477E-04    0.01      15.8  T
  18   -323.1869855 -0.713134E-07  0.298E-04    0.01      25.2  T
  19   -323.1869855 -0.129767E-07  0.265E-04    0.01      28.3  T
  20   -323.1869855 -0.343337E-07  0.583E-05    0.01     129.0  T
  21   -323.1869855 -0.167682E-08  0.919E-06    0.01     818.0  T
     SCC iter.                  ...        0 min,  4.095 sec
     gradient                   ...        0 min,  0.786 sec
 * total energy  :  -318.2316419 Eh     change       -0.4424063E-01 Eh
   gradient norm :     0.1125159 Eh/α   predicted    -0.3679072E-01 ( -16.84%)
   displ. norm   :     0.8579351 α      lambda       -0.4685414E-01
   maximum displ.:     0.3984828 α      in ANC's #89, #57, #56, ...

........................................................................
.............................. CYCLE   10 ..............................
........................................................................
   1   -323.1668949 -0.323167E+03  0.904E-02    0.00       0.0  T
   2   -321.9545712  0.121232E+01  0.164E+00    0.25       1.0  T
   3   -322.9342266 -0.979655E+00  0.711E-01    0.01       1.0  T
   4   -322.9792615 -0.450349E-01  0.637E-01    0.03       1.0  T
   5   -323.0673350 -0.880735E-01  0.460E-01    0.03       1.0  T
   6   -323.1361139 -0.687789E-01  0.271E-01    0.03       1.0  T
   7   -323.0785602  0.575537E-01  0.442E-01    0.02       1.0  T
   8   -323.1376425 -0.590823E-01  0.262E-01    0.03       1.0  T
   9   -323.1611595 -0.235170E-01  0.137E-01    0.00       1.0  T
  10   -323.1698261 -0.866664E-02  0.161E-02    0.00       1.0  T
  11   -323.1699273 -0.101179E-03  0.546E-03    0.00       1.4  T
  12   -323.1697885  0.138815E-03  0.178E-02    0.00       1.0  T
  13   -323.1698590 -0.704696E-04  0.131E-02    0.00       1.0  T
  14   -323.1699374 -0.784583E-04  0.336E-03    0.00       2.2  T
  15   -323.1699407 -0.323608E-05  0.222E-03    0.00       3.4  T
  16   -323.1699412 -0.552361E-06  0.195E-03    0.00       3.9  T
  17   -323.1699429 -0.165323E-05  0.671E-04    0.00      11.2  T
  18   -323.1699431 -0.214854E-06  0.175E-04    0.00      43.0  T
  19   -323.1699431 -0.233302E-08  0.152E-04    0.00      49.4  T
     SCC iter.                  ...        0 min,  3.722 sec
     gradient                   ...        0 min,  0.780 sec
 * total energy  :  -318.2773394 Eh     change       -0.4569753E-01 Eh
   gradient norm :     0.1121388 Eh/α   predicted    -0.4067063E-01 ( -11.00%)
   displ. norm   :     0.8745912 α      lambda       -0.6153367E-01
   maximum displ.:     0.3501065 α      in ANC's #89, #57, #4, ...

........................................................................
.............................. CYCLE   11 ..............................
........................................................................
   1   -323.1333453 -0.323133E+03  0.174E-01    0.01       0.0  T
   2   -321.6091539  0.152419E+01  0.189E+00    0.30       1.0  T
   3   -322.7485223 -0.113937E+01  0.941E-01    0.08       1.0  T
   4   -322.8258332 -0.773109E-01  0.844E-01    0.05       1.0  T
   5   -323.1435774 -0.317744E+00  0.849E-02    0.00       1.0  T
   6   -323.0787149  0.648625E-01  0.389E-01    0.03       1.0  T
   7   -322.7853760  0.293339E+00  0.872E-01    0.10       1.0  T
   8   -323.0283491 -0.242973E+00  0.493E-01    0.04       1.0  T
   9   -323.0426553 -0.143063E-01  0.475E-01    0.01       1.0  T
  10   -323.0358001  0.685523E-02  0.476E-01    0.06       1.0  T
  11   -323.0927931 -0.569930E-01  0.330E-01    0.03       1.0  T
  12   -323.1159694 -0.231763E-01  0.251E-01    0.00       1.0  T
  13   -323.1323358 -0.163665E-01  0.169E-01    0.01       1.0  T
  14   -323.1442847 -0.119488E-01  0.532E-02    0.01       1.0  T
  15   -323.1453263 -0.104163E-02  0.268E-02    0.00       1.0  T
  16   -323.1455692 -0.242899E-03  0.140E-02    0.00       1.0  T
  17   -323.1456402 -0.709738E-04  0.647E-03    0.00       1.2  T
  18   -323.1456584 -0.181757E-04  0.178E-03    0.00       4.2  T
  19   -323.1456587 -0.347876E-06  0.158E-03    0.00       4.8  T
  20   -323.1456593 -0.537561E-06  0.119E-03    0.00       6.3  T
  21   -323.1456599 -0.599491E-06  0.393E-04    0.00      19.1  T
  22   -323.1456599 -0.614581E-07  0.174E-04    0.00      43.1  T
  23   -323.1456599 -0.136553E-07  0.667E-05    0.00     112.7  T
     SCC iter.                  ...        0 min,  4.220 sec
     gradient                   ...        0 min,  0.645 sec
 * total energy  :  -318.3148952 Eh     change       -0.3755587E-01 Eh
   gradient norm :     0.0850878 Eh/α   predicted    -0.5430070E-01 (  44.59%)
   displ. norm   :     0.7093622 α      lambda       -0.2833201E-01
   maximum displ.:     0.3059889 α      in ANC's #57, #4, #56, ...

........................................................................
.............................. CYCLE   12 ..............................
........................................................................
   1   -323.1879483 -0.323188E+03  0.343E-02    0.00       0.0  T
   2   -322.9849964  0.202952E+00  0.654E-01    0.04       1.0  T
   3   -323.0946732 -0.109677E+00  0.443E-01    0.03       1.0  T
   4   -323.1490672 -0.543940E-01  0.291E-01    0.01       1.0  T
   5   -323.1722490 -0.231818E-01  0.186E-01    0.00       1.0  T
   6   -323.1829739 -0.107249E-01  0.105E-01    0.01       1.0  T
   7   -323.1879433 -0.496940E-02  0.259E-02    0.00       1.0  T
   8   -323.1859774  0.196596E-02  0.687E-02    0.00       1.0  T
   9   -323.1879068 -0.192942E-02  0.262E-02    0.00       1.0  T
  10   -323.1879499 -0.431190E-04  0.250E-02    0.00       1.0  T
  11   -323.1881883 -0.238333E-03  0.110E-02    0.00       1.0  T
  12   -323.1882448 -0.565364E-04  0.257E-03    0.00       2.9  T
  13   -323.1882428  0.198984E-05  0.323E-03    0.00       2.3  T
  14   -323.1882476 -0.476028E-05  0.697E-04    0.00      10.8  T
  15   -323.1882478 -0.222121E-06  0.136E-04    0.00      55.2  T
  16   -323.1882478 -0.813350E-08  0.340E-05    0.00     221.4  T
     SCC iter.                  ...        0 min,  2.490 sec
     gradient                   ...        0 min,  0.643 sec
 * total energy  :  -318.3371009 Eh     change       -0.2220565E-01 Eh
   gradient norm :     0.0609086 Eh/α   predicted    -0.2129428E-01 (  -4.10%)
   displ. norm   :     0.7632370 α      lambda       -0.2939888E-01
   maximum displ.:     0.2595266 α      in ANC's #57, #13, #4, ...

........................................................................
.............................. CYCLE   13 ..............................
........................................................................
   1   -323.2495697 -0.323250E+03  0.954E-02    0.01       0.0  T
   2   -322.1002810  0.114929E+01  0.160E+00    0.27       1.0  T
   3   -322.5823082 -0.482027E+00  0.118E+00    0.22       1.0  T
   4   -323.2522315 -0.669923E+00  0.503E-02    0.00       1.0  T
   5   -323.2518797  0.351821E-03  0.662E-02    0.00       1.0  T
   6   -323.2336267  0.182530E-01  0.207E-01    0.00       1.0  T
   7   -323.0620611  0.171566E+00  0.638E-01    0.05       1.0  T
   8   -323.2375624 -0.175501E+00  0.180E-01    0.02       1.0  T
   9   -323.2375769 -0.145429E-04  0.181E-01    0.00       1.0  T
  10   -323.2511821 -0.136052E-01  0.626E-02    0.01       1.0  T
  11   -323.2523532 -0.117102E-02  0.385E-02    0.00       1.0  T
  12   -323.2526447 -0.291548E-03  0.290E-02    0.00       1.0  T
  13   -323.2529534 -0.308723E-03  0.138E-02    0.00       1.0  T
  14   -323.2529328  0.206146E-04  0.153E-02    0.00       1.0  T
  15   -323.2530050 -0.721501E-04  0.906E-03    0.00       1.0  T
  16   -323.2530419 -0.369732E-04  0.212E-03    0.00       3.5  T
  17   -323.2530386  0.332375E-05  0.341E-03    0.00       2.2  T
  18   -323.2530441 -0.544578E-05  0.428E-04    0.00      17.6  T
  19   -323.2530438  0.249062E-06  0.850E-04    0.00       8.8  T
  20   -323.2530441 -0.283868E-06  0.342E-04    0.00      22.0  T
  21   -323.2530441 -0.545795E-07  0.310E-05    0.00     242.8  T
  22   -323.2530441 -0.989075E-10  0.276E-05    0.00     272.3  T
     SCC iter.                  ...        0 min,  3.412 sec
     gradient                   ...        0 min,  0.644 sec
 * total energy  :  -318.3501712 Eh     change       -0.1307029E-01 Eh
   gradient norm :     0.0948338 Eh/α   predicted    -0.2326239E-01 (  77.98%)
   displ. norm   :     0.6803047 α      lambda       -0.2410200E-01
   maximum displ.:     0.2858915 α      in ANC's #4, #57, #13, ...

........................................................................
.............................. CYCLE   14 ..............................
........................................................................
   1   -323.2759462 -0.323276E+03  0.991E-02    0.00       0.0  T
   2   -321.9490845  0.132686E+01  0.173E+00    0.29       1.0  T
   3   -323.1480594 -0.119897E+01  0.531E-01    0.04       1.0  T
   4   -323.0236971  0.124362E+00  0.737E-01    0.07       1.0  T
   5   -323.2484771 -0.224780E+00  0.256E-01    0.02       1.0  T
   6   -323.1031621  0.145315E+00  0.622E-01    0.01       1.0  T
   7   -323.1855851 -0.824230E-01  0.448E-01    0.04       1.0  T
   8   -323.2602733 -0.746882E-01  0.199E-01    0.01       1.0  T
   9   -323.2717712 -0.114979E-01  0.126E-01    0.00       1.0  T
  10   -323.2726356 -0.864353E-03  0.119E-01    0.01       1.0  T
  11   -323.2777660 -0.513046E-02  0.606E-02    0.00       1.0  T
  12   -323.2792063 -0.144025E-02  0.267E-02    0.00       1.0  T
  13   -323.2794757 -0.269432E-03  0.128E-02    0.00       1.0  T
  14   -323.2795276 -0.519053E-04  0.756E-03    0.00       1.0  T
  15   -323.2795430 -0.153713E-04  0.503E-03    0.00       1.5  T
  16   -323.2795487 -0.570380E-05  0.368E-03    0.00       2.0  T
  17   -323.2795532 -0.450021E-05  0.206E-03    0.00       3.6  T
  18   -323.2795552 -0.196292E-05  0.370E-04    0.00      20.3  T
  19   -323.2795552 -0.503429E-07  0.178E-04    0.00      42.3  T
  20   -323.2795552 -0.596231E-09  0.173E-04    0.00      43.4  T
     SCC iter.                  ...        0 min,  3.110 sec
     gradient                   ...        0 min,  0.657 sec
 * total energy  :  -318.3672722 Eh     change       -0.1710101E-01 Eh
   gradient norm :     0.0520320 Eh/α   predicted    -0.1762847E-01 (   3.08%)
   displ. norm   :     0.8219811 α      lambda       -0.1742418E-01
   maximum displ.:     0.3498824 α      in ANC's #4, #13, #57, ...

........................................................................
.............................. CYCLE   15 ..............................
........................................................................
   1   -323.2912821 -0.323291E+03  0.882E-02    0.00       0.0  T
   2   -321.9875710  0.130371E+01  0.171E+00    0.29       1.0  T
   3   -323.2399994 -0.125243E+01  0.342E-01    0.02       1.0  T
   4   -323.1548419  0.851575E-01  0.546E-01    0.02       1.0  T
   5   -323.2429740 -0.881321E-01  0.342E-01    0.00       1.0  T
   6   -323.2931277 -0.501537E-01  0.580E-02    0.00       1.0  T
   7   -323.2232138  0.699139E-01  0.390E-01    0.04       1.0  T
   8   -323.2736693 -0.504555E-01  0.214E-01    0.00       1.0  T
   9   -323.2858392 -0.121699E-01  0.137E-01    0.01       1.0  T
  10   -323.2944782 -0.863894E-02  0.129E-02    0.00       1.0  T
  11   -323.2945227 -0.445115E-04  0.852E-03    0.00       1.0  T
  12   -323.2944731  0.496077E-04  0.134E-02    0.00       1.0  T
  13   -323.2944969 -0.238797E-04  0.114E-02    0.00       1.0  T
  14   -323.2945406 -0.436195E-04  0.600E-03    0.00       1.3  T
  15   -323.2945532 -0.125986E-04  0.303E-03    0.00       2.5  T
  16   -323.2945562 -0.302002E-05  0.166E-03    0.00       4.5  T
  17   -323.2945574 -0.122638E-05  0.396E-04    0.00      19.0  T
  18   -323.2945575 -0.599721E-07  0.173E-04    0.00      43.3  T
  19   -323.2945575 -0.109214E-07  0.844E-05    0.00      89.0  T
     SCC iter.                  ...        0 min,  3.066 sec
     gradient                   ...        0 min,  0.657 sec
 * total energy  :  -318.3741051 Eh     change       -0.6832867E-02 Eh
   gradient norm :     0.0743997 Eh/α   predicted    -0.1459844E-01 ( 113.65%)
   displ. norm   :     0.6399220 α      lambda       -0.1994509E-01
   maximum displ.:     0.2684311 α      in ANC's #13, #4, #89, ...

........................................................................
.............................. CYCLE   16 ..............................
........................................................................
   1   -323.3361001 -0.323336E+03  0.133E-01    0.00       0.0  T
   2   -321.9162133  0.141989E+01  0.181E+00    0.31       1.0  T
   3   -323.3389772 -0.142276E+01  0.937E-02    0.01       1.0  T
   4   -323.1158862  0.223091E+00  0.690E-01    0.05       1.0  T
   5   -323.3238426 -0.207956E+00  0.199E-01    0.01       1.0  T
   6   -323.2803312  0.435114E-01  0.371E-01    0.01       1.0  T
   7   -323.1382880  0.142043E+00  0.656E-01    0.09       1.0  T
   8   -323.3151809 -0.176893E+00  0.245E-01    0.01       1.0  T
   9   -323.3281917 -0.130108E-01  0.177E-01    0.02       1.0  T
  10   -323.3412114 -0.130197E-01  0.560E-02    0.00       1.0  T
  11   -323.3426113 -0.139981E-02  0.150E-02    0.00       1.0  T
  12   -323.3419906  0.620682E-03  0.395E-02    0.00       1.0  T
  13   -323.3421275 -0.136910E-03  0.356E-02    0.00       1.0  T
  14   -323.3425264 -0.398894E-03  0.204E-02    0.00       1.0  T
  15   -323.3426872 -0.160848E-03  0.848E-03    0.00       1.0  T
  16   -323.3426852  0.207255E-05  0.875E-03    0.00       1.0  T
  17   -323.3427148 -0.295991E-04  0.366E-03    0.00       2.1  T
  18   -323.3427210 -0.628169E-05  0.257E-04    0.00      29.2  T
  19   -323.3427210  0.355834E-07  0.378E-04    0.00      19.9  T
  20   -323.3427211 -0.671338E-07  0.526E-05    0.00     142.8  T
  21   -323.3427211  0.256148E-08  0.932E-05    0.00      80.7  T
     SCC iter.                  ...        0 min,  3.379 sec
     gradient                   ...        0 min,  0.656 sec
 * total energy  :  -318.3871959 Eh     change       -0.1309079E-01 Eh
   gradient norm :     0.0451928 Eh/α   predicted    -0.1405632E-01 (   7.38%)
   displ. norm   :     0.7405385 α      lambda       -0.1389461E-01
   maximum displ.:     0.3843807 α      in ANC's #4, #13, #89, ...

........................................................................
.............................. CYCLE   17 ..............................
........................................................................
   1   -323.3750928 -0.323375E+03  0.103E-01    0.00       0.0  T
   2   -322.0345148  0.134058E+01  0.175E+00    0.31       1.0  T
   3   -322.9698164 -0.935302E+00  0.917E-01    0.14       1.0  T
   4   -323.2968680 -0.327052E+00  0.412E-01    0.04       1.0  T
   5   -323.3446388 -0.477708E-01  0.266E-01    0.00       1.0  T
   6   -323.2849882  0.596506E-01  0.445E-01    0.05       1.0  T
   7   -323.2734691  0.115191E-01  0.474E-01    0.04       1.0  T
   8   -323.2999670 -0.264979E-01  0.413E-01    0.03       1.0  T
   9   -323.3720541 -0.720872E-01  0.124E-01    0.01       1.0  T
  10   -323.3760982 -0.404405E-02  0.824E-02    0.01       1.0  T
  11   -323.3771737 -0.107551E-02  0.674E-02    0.01       1.0  T
  12   -323.3785025 -0.132881E-02  0.422E-02    0.00       1.0  T
  13   -323.3790715 -0.568948E-03  0.237E-02    0.00       1.0  T
  14   -323.3792451 -0.173666E-03  0.139E-02    0.00       1.0  T
  15   -323.3792830 -0.378630E-04  0.107E-02    0.00       1.0  T
  16   -323.3793209 -0.379400E-04  0.589E-03    0.00       1.3  T
  17   -323.3793371 -0.161387E-04  0.694E-04    0.00      10.8  T
  18   -323.3793373 -0.221531E-06  0.167E-04    0.00      45.0  T
  19   -323.3793373  0.136095E-07  0.237E-04    0.00      31.7  T
  20   -323.3793373 -0.112771E-07  0.178E-04    0.00      42.2  T
     SCC iter.                  ...        0 min,  3.213 sec
     gradient                   ...        0 min,  0.655 sec
 * total energy  :  -318.3954191 Eh     change       -0.8223198E-02 Eh
   gradient norm :     0.0464894 Eh/α   predicted    -0.1075720E-01 (  30.82%)
   displ. norm   :     0.7864780 α      lambda       -0.1293185E-01
   maximum displ.:     0.3716731 α      in ANC's #13, #4, #14, ...

........................................................................
.............................. CYCLE   18 ..............................
........................................................................
   1   -323.4049954 -0.323405E+03  0.849E-02    0.00       0.0  T
   2   -322.1021501  0.130285E+01  0.171E+00    0.31       1.0  T
   3   -323.3518122 -0.124966E+01  0.345E-01    0.03       1.0  T
   4   -323.2968304  0.549818E-01  0.482E-01    0.05       1.0  T
   5   -323.3910681 -0.942377E-01  0.185E-01    0.01       1.0  T
   6   -323.3646632  0.264049E-01  0.306E-01    0.01       1.0  T
   7   -323.3742327 -0.956954E-02  0.267E-01    0.03       1.0  T
   8   -323.3976244 -0.233917E-01  0.147E-01    0.01       1.0  T
   9   -323.4059768 -0.835235E-02  0.581E-02    0.00       1.0  T
  10   -323.4062212 -0.244460E-03  0.540E-02    0.00       1.0  T
  11   -323.4073255 -0.110422E-02  0.255E-02    0.00       1.0  T
  12   -323.4075046 -0.179151E-03  0.166E-02    0.00       1.0  T
  13   -323.4075196 -0.149714E-04  0.158E-02    0.00       1.0  T
  14   -323.4075770 -0.574127E-04  0.113E-02    0.00       1.0  T
  15   -323.4076297 -0.527236E-04  0.409E-03    0.00       1.8  T
  16   -323.4076366 -0.683319E-05  0.148E-03    0.00       5.1  T
  17   -323.4076371 -0.511783E-06  0.105E-03    0.00       7.1  T
  18   -323.4076376 -0.512193E-06  0.123E-04    0.00      61.1  T
  19   -323.4076376 -0.403713E-08  0.803E-05    0.00      93.6  T
     SCC iter.                  ...        0 min,  3.058 sec
     gradient                   ...        0 min,  0.658 sec
 * total energy  :  -318.4053016 Eh     change       -0.9882591E-02 Eh
   gradient norm :     0.0406539 Eh/α   predicted    -0.1046542E-01 (   5.90%)
   displ. norm   :     0.8013050 α      lambda       -0.1416600E-01
   maximum displ.:     0.4095301 α      in ANC's #13, #4, #14, ...

........................................................................
.............................. CYCLE   19 ..............................
........................................................................
   1   -323.4257863 -0.323426E+03  0.516E-02    0.00       0.0  T
   2   -323.0282928  0.397494E+00  0.936E-01    0.12       1.0  T
   3   -323.3356875 -0.307395E+00  0.429E-01    0.04       1.0  T
   4   -323.3044723  0.312152E-01  0.497E-01    0.05       1.0  T
   5   -323.3809006 -0.764283E-01  0.312E-01    0.03       1.0  T
   6   -323.3967154 -0.158147E-01  0.254E-01    0.02       1.0  T
   7   -323.2330744  0.163641E+00  0.644E-01    0.01       1.0  T
   8   -323.4188496 -0.185775E+00  0.133E-01    0.00       1.0  T
   9   -323.3972260  0.216237E-01  0.250E-01    0.00       1.0  T
  10   -323.4269201 -0.296941E-01  0.514E-03    0.00       1.5  T
  11   -323.4266877  0.232404E-03  0.229E-02    0.00       1.0  T
  12   -323.4268672 -0.179519E-03  0.115E-02    0.00       1.0  T
  13   -323.4268976 -0.304066E-04  0.828E-03    0.00       1.0  T
  14   -323.4269264 -0.288311E-04  0.286E-03    0.00       2.6  T
  15   -323.4269303 -0.386372E-05  0.151E-04    0.00      49.9  T
  16   -323.4269302  0.544586E-07  0.366E-04    0.00      20.5  T
  17   -323.4269303 -0.559444E-07  0.106E-04    0.00      71.0  T
  18   -323.4269303  0.109476E-07  0.186E-04    0.00      40.4  T
     SCC iter.                  ...        0 min,  2.886 sec
     gradient                   ...        0 min,  0.659 sec
 * total energy  :  -318.4099745 Eh     change       -0.4672807E-02 Eh
   gradient norm :     0.0775284 Eh/α   predicted    -0.1163093E-01 ( 148.91%)
   displ. norm   :     0.5915696 α      lambda       -0.1441337E-01
   maximum displ.:     0.3293055 α      in ANC's #4, #13, #14, ...

........................................................................
.............................. CYCLE   20 ..............................
........................................................................
   1   -323.4507058 -0.323451E+03  0.405E-02    0.00       0.0  T
   2   -323.1164855  0.334220E+00  0.862E-01    0.06       1.0  T
   3   -323.4284636 -0.311978E+00  0.217E-01    0.02       1.0  T
   4   -323.4429841 -0.145205E-01  0.133E-01    0.01       1.0  T
   5   -323.3847807  0.582034E-01  0.370E-01    0.03       1.0  T
   6   -323.4423260 -0.575453E-01  0.139E-01    0.01       1.0  T
   7   -323.3601544  0.821716E-01  0.437E-01    0.01       1.0  T
   8   -323.4340924 -0.739379E-01  0.194E-01    0.00       1.0  T
   9   -323.4344924 -0.400064E-03  0.189E-01    0.00       1.0  T
  10   -323.4493434 -0.148510E-01  0.663E-02    0.00       1.0  T
  11   -323.4511423 -0.179893E-02  0.223E-02    0.00       1.0  T
  12   -323.4513599 -0.217600E-03  0.646E-03    0.00       1.2  T
  13   -323.4513602 -0.242511E-06  0.644E-03    0.00       1.2  T
  14   -323.4513766 -0.164109E-04  0.268E-03    0.00       2.8  T
  15   -323.4513792 -0.262290E-05  0.124E-03    0.00       6.0  T
  16   -323.4513795 -0.281282E-06  0.968E-04    0.00       7.8  T
  17   -323.4513799 -0.443231E-06  0.110E-04    0.00      68.1  T
  18   -323.4513799 -0.323155E-09  0.108E-04    0.00      69.8  T
     SCC iter.                  ...        0 min,  2.868 sec
     gradient                   ...        0 min,  0.657 sec
 * total energy  :  -318.4200769 Eh     change       -0.1010245E-01 Eh
   gradient norm :     0.0259568 Eh/α   predicted    -0.9728707E-02 (  -3.70%)
   displ. norm   :     0.8509422 α      lambda       -0.9876198E-02
   maximum displ.:     0.4570704 α      in ANC's #4, #13, #14, ...
 * RMSD in coord.:     0.8053265 α      energy gain  -0.8991939E+00 Eh

generating ANC from model Hessian ...
Using Lindh-Hessian (1995)
 Shifting diagonal of input Hessian by    1.0020295249783356E-002
 Lowest  eigenvalues of input Hessian
    0.010000    0.010002    0.010003    0.010006    0.010017    0.010018
    0.000000    0.000000    0.000000    0.000000    0.000000    0.000000
    0.010022    0.010023    0.010027    0.010030    0.010141    0.010198
 Highest eigenvalues
    2.273463    2.279572    2.563998    2.566671    2.755316    2.776532


........................................................................
.............................. CYCLE   21 ..............................
........................................................................
   1   -323.4716485 -0.323472E+03  0.330E-02    0.00       0.0  T
   2   -323.1407609  0.330888E+00  0.851E-01    0.06       1.0  T
   3   -323.4141140 -0.273353E+00  0.351E-01    0.04       1.0  T
   4   -323.4370672 -0.229532E-01  0.269E-01    0.01       1.0  T
   5   -323.4713085 -0.342413E-01  0.487E-02    0.00       1.0  T
   6   -323.4698680  0.144054E-02  0.688E-02    0.00       1.0  T
   7   -323.4680497  0.181833E-02  0.926E-02    0.01       1.0  T
   8   -323.4710689 -0.301928E-02  0.473E-02    0.00       1.0  T
   9   -323.4721082 -0.103924E-02  0.505E-03    0.00       1.5  T
  10   -323.4721188 -0.105781E-04  0.136E-03    0.00       5.5  T
  11   -323.4721195 -0.706766E-06  0.578E-04    0.00      13.0  T
  12   -323.4721195 -0.238135E-07  0.532E-04    0.00      14.1  T
  13   -323.4721196 -0.892704E-07  0.302E-04    0.00      24.9  T
  14   -323.4721196 -0.286998E-07  0.178E-04    0.00      42.3  T
  15   -323.4721196 -0.139960E-07  0.364E-05    0.00     206.4  T
     SCC iter.                  ...        0 min,  2.373 sec
     gradient                   ...        0 min,  0.660 sec
 * total energy  :  -318.4263952 Eh     change       -0.6318283E-02 Eh
   gradient norm :     0.0341598 Eh/α   predicted     0.0000000E+00 (-100.00%)
   displ. norm   :     0.5626650 α      lambda       -0.7015661E-02
   maximum displ.:     0.3681675 α      in ANC's #19, #33, #24, ...

........................................................................
.............................. CYCLE   22 ..............................
........................................................................
   1   -323.4901796 -0.323490E+03  0.426E-02    0.00       0.0  T
   2   -323.1371861  0.352993E+00  0.883E-01    0.07       1.0  T
   3   -323.3623228 -0.225137E+00  0.518E-01    0.06       1.0  T
   4   -323.4851011 -0.122778E+00  0.110E-01    0.01       1.0  T
   5   -323.4867879 -0.168683E-02  0.101E-01    0.01       1.0  T
   6   -323.4852520  0.153589E-02  0.111E-01    0.01       1.0  T
   7   -323.4801812  0.507075E-02  0.152E-01    0.01       1.0  T
   8   -323.4891195 -0.893822E-02  0.639E-02    0.01       1.0  T
   9   -323.4907591 -0.163964E-02  0.216E-02    0.00       1.0  T
  10   -323.4909741 -0.214991E-03  0.259E-03    0.00       2.9  T
  11   -323.4909679  0.621160E-05  0.449E-03    0.00       1.7  T
  12   -323.4909755 -0.763658E-05  0.193E-03    0.00       3.9  T
  13   -323.4909769 -0.137447E-05  0.944E-04    0.00       8.0  T
  14   -323.4909771 -0.227106E-06  0.625E-04    0.00      12.0  T
  15   -323.4909773 -0.141426E-06  0.283E-04    0.00      26.6  T
  16   -323.4909773 -0.321512E-07  0.894E-05    0.00      84.1  T
  17   -323.4909773 -0.360359E-08  0.928E-06    0.00     810.3  T
     SCC iter.                  ...        0 min,  2.696 sec
     gradient                   ...        0 min,  0.655 sec
 * total energy  :  -318.4324360 Eh     change       -0.6040798E-02 Eh
   gradient norm :     0.0231825 Eh/α   predicted    -0.4619946E-02 ( -23.52%)
   displ. norm   :     0.8425074 α      lambda       -0.1011672E-01
   maximum displ.:     0.5240653 α      in ANC's #19, #33, #24, ...

........................................................................
.............................. CYCLE   23 ..............................
........................................................................
   1   -323.5112219 -0.323511E+03  0.935E-02    0.01       0.0  T
   2   -323.0461263  0.465096E+00  0.103E+00    0.12       1.0  T
   3   -322.9115941  0.134532E+00  0.111E+00    0.20       1.0  T
   4   -323.4502632 -0.538669E+00  0.368E-01    0.03       1.0  T
   5   -323.5054825 -0.552193E-01  0.153E-01    0.01       1.0  T
   6   -323.3455541  0.159928E+00  0.601E-01    0.06       1.0  T
   7   -323.5113349 -0.165781E+00  0.910E-02    0.01       1.0  T
   8   -323.4919496  0.193853E-01  0.220E-01    0.01       1.0  T
   9   -323.5144035 -0.224539E-01  0.415E-02    0.00       1.0  T
  10   -323.5113788  0.302475E-02  0.888E-02    0.00       1.0  T
  11   -323.5147989 -0.342012E-02  0.262E-02    0.00       1.0  T
  12   -323.5149528 -0.153917E-03  0.187E-02    0.00       1.0  T
  13   -323.5150814 -0.128645E-03  0.892E-03    0.00       1.0  T
  14   -323.5150157  0.657089E-04  0.149E-02    0.00       1.0  T
  15   -323.5151152 -0.994416E-04  0.295E-03    0.00       2.5  T
  16   -323.5151181 -0.296046E-05  0.164E-03    0.00       4.6  T
  17   -323.5151188 -0.673793E-06  0.113E-03    0.00       6.6  T
  18   -323.5151191 -0.258146E-06  0.850E-04    0.00       8.8  T
  19   -323.5151194 -0.275544E-06  0.347E-04    0.00      21.7  T
  20   -323.5151194 -0.532992E-07  0.613E-05    0.00     122.6  T
  21   -323.5151194 -0.168052E-08  0.101E-05    0.00     745.7  T
     SCC iter.                  ...        0 min,  3.234 sec
     gradient                   ...        0 min,  0.654 sec
 * total energy  :  -318.4392854 Eh     change       -0.6849454E-02 Eh
   gradient norm :     0.0277081 Eh/α   predicted    -0.8648895E-02 (  26.27%)
   displ. norm   :     0.7919614 α      lambda       -0.1027362E-01
   maximum displ.:     0.4795090 α      in ANC's #19, #33, #24, ...

........................................................................
.............................. CYCLE   24 ..............................
........................................................................
   1   -323.5320755 -0.323532E+03  0.765E-02    0.01       0.0  T
   2   -323.1689099  0.363166E+00  0.914E-01    0.04       1.0  T
   3   -323.3037190 -0.134809E+00  0.693E-01    0.10       1.0  T
   4   -323.5027630 -0.199044E+00  0.260E-01    0.02       1.0  T
   5   -323.5242126 -0.214496E-01  0.158E-01    0.01       1.0  T
   6   -323.4173983  0.106814E+00  0.501E-01    0.05       1.0  T
   7   -323.5303586 -0.112960E+00  0.954E-02    0.00       1.0  T
   8   -323.5343614 -0.400279E-02  0.253E-02    0.00       1.0  T
   9   -323.5342932  0.681489E-04  0.291E-02    0.00       1.0  T
  10   -323.5346621 -0.368841E-03  0.556E-03    0.00       1.4  T
  11   -323.5342337  0.428405E-03  0.309E-02    0.00       1.0  T
  12   -323.5346758 -0.442106E-03  0.129E-03    0.00       5.8  T
  13   -323.5346765 -0.730702E-06  0.392E-04    0.00      19.2  T
  14   -323.5346743  0.221651E-05  0.224E-03    0.00       3.4  T
  15   -323.5346755 -0.125380E-05  0.151E-03    0.00       5.0  T
  16   -323.5346765 -0.969710E-06  0.393E-04    0.00      19.1  T
  17   -323.5346766 -0.700468E-07  0.318E-05    0.00     236.6  T
  18   -323.5346766 -0.384432E-09  0.146E-05    0.00     513.9  T
     SCC iter.                  ...        0 min,  2.753 sec
     gradient                   ...        0 min,  0.654 sec
 * total energy  :  -318.4459778 Eh     change       -0.6692366E-02 Eh
   gradient norm :     0.0344543 Eh/α   predicted    -0.8358640E-02 (  24.90%)
   displ. norm   :     0.7722952 α      lambda       -0.8861418E-02
   maximum displ.:     0.4558163 α      in ANC's #19, #33, #24, ...

........................................................................
.............................. CYCLE   25 ..............................
........................................................................
   1   -323.5474282 -0.323547E+03  0.253E-02    0.00       0.0  T
   2   -323.2220528  0.325375E+00  0.840E-01    0.07       1.0  T
   3   -323.5215770 -0.299524E+00  0.234E-01    0.02       1.0  T
   4   -323.5426202 -0.210432E-01  0.106E-01    0.00       1.0  T
   5   -323.5452161 -0.259593E-02  0.739E-02    0.01       1.0  T
   6   -323.5475508 -0.233465E-02  0.182E-02    0.00       1.0  T
   7   -323.5474665  0.842406E-04  0.220E-02    0.00       1.0  T
   8   -323.5475492 -0.826706E-04  0.179E-02    0.00       1.0  T
   9   -323.5476907 -0.141505E-03  0.230E-03    0.00       3.3  T
  10   -323.5476774  0.133009E-04  0.586E-03    0.00       1.3  T
  11   -323.5476925 -0.150741E-04  0.128E-03    0.00       5.9  T
  12   -323.5476930 -0.507211E-06  0.704E-04    0.00      10.7  T
  13   -323.5476929  0.304436E-07  0.770E-04    0.00       9.8  T
  14   -323.5476932 -0.233721E-06  0.276E-04    0.00      27.2  T
  15   -323.5476932 -0.342806E-07  0.503E-05    0.00     149.3  T
  16   -323.5476932 -0.120627E-08  0.312E-06    0.00    2410.7  T
     SCC iter.                  ...        0 min,  2.437 sec
     gradient                   ...        0 min,  0.658 sec
 * total energy  :  -318.4516739 Eh     change       -0.5696078E-02 Eh
   gradient norm :     0.0319716 Eh/α   predicted    -0.7073362E-02 (  24.18%)
   displ. norm   :     0.7595961 α      lambda       -0.8273291E-02
   maximum displ.:     0.5166464 α      in ANC's #19, #33, #24, ...

........................................................................
.............................. CYCLE   26 ..............................
........................................................................
   1   -323.5636833 -0.323564E+03  0.115E-02    0.00       0.0  T
   2   -323.4110644  0.152619E+00  0.569E-01    0.03       1.0  T
   3   -323.5631836 -0.152119E+00  0.424E-02    0.00       1.0  T
   4   -323.5543778  0.880576E-02  0.142E-01    0.00       1.0  T
   5   -323.5581397 -0.376185E-02  0.110E-01    0.01       1.0  T
   6   -323.5628963 -0.475664E-02  0.434E-02    0.00       1.0  T
   7   -323.5631997 -0.303376E-03  0.346E-02    0.00       1.0  T
   8   -323.5636623 -0.462637E-03  0.124E-02    0.00       1.0  T
   9   -323.5637317 -0.693909E-04  0.257E-03    0.00       2.9  T
  10   -323.5637346 -0.294125E-05  0.521E-04    0.00      14.4  T
  11   -323.5637347 -0.106333E-06  0.213E-04    0.00      35.3  T
  12   -323.5637348 -0.102105E-07  0.156E-04    0.00      48.3  T
  13   -323.5637348 -0.850201E-08  0.720E-05    0.00     104.5  T
     SCC iter.                  ...        0 min,  2.159 sec
     gradient                   ...        0 min,  0.675 sec
 * total energy  :  -318.4580114 Eh     change       -0.6337470E-02 Eh
   gradient norm :     0.0201305 Eh/α   predicted    -0.6523438E-02 (   2.93%)
   displ. norm   :     0.8291810 α      lambda       -0.8194814E-02
   maximum displ.:     0.5034789 α      in ANC's #19, #33, #24, ...

........................................................................
.............................. CYCLE   27 ..............................
........................................................................
   1   -323.5729869 -0.323573E+03  0.170E-02    0.00       0.0  T
   2   -323.3096255  0.263361E+00  0.758E-01    0.07       1.0  T
   3   -323.5694410 -0.259816E+00  0.924E-02    0.00       1.0  T
   4   -323.5244259  0.450152E-01  0.324E-01    0.01       1.0  T
   5   -323.5673123 -0.428864E-01  0.111E-01    0.01       1.0  T
   6   -323.5721234 -0.481111E-02  0.450E-02    0.00       1.0  T
   7   -323.5722965 -0.173133E-03  0.425E-02    0.00       1.0  T
   8   -323.5731023 -0.805841E-03  0.379E-03    0.00       2.0  T
   9   -323.5731037 -0.136288E-05  0.318E-03    0.00       2.4  T
  10   -323.5731071 -0.335262E-05  0.167E-03    0.00       4.5  T
  11   -323.5731083 -0.124993E-05  0.186E-04    0.00      40.5  T
  12   -323.5731083  0.431858E-07  0.359E-04    0.00      20.9  T
  13   -323.5731083 -0.352071E-07  0.228E-04    0.00      33.0  T
  14   -323.5731083 -0.243675E-07  0.201E-05    0.00     373.9  T
  15   -323.5731083 -0.172179E-09  0.579E-06    0.00    1299.2  T
     SCC iter.                  ...        0 min,  2.490 sec
     gradient                   ...        0 min,  0.677 sec
 * total energy  :  -318.4608984 Eh     change       -0.2887043E-02 Eh
   gradient norm :     0.0307928 Eh/α   predicted    -0.6914551E-02 ( 139.50%)
   displ. norm   :     0.6271978 α      lambda       -0.9619447E-02
   maximum displ.:     0.4203315 α      in ANC's #19, #33, #24, ...

........................................................................
.............................. CYCLE   28 ..............................
........................................................................
   1   -323.5956401 -0.323596E+03  0.173E-02    0.00       0.0  T
   2   -323.4049115  0.190729E+00  0.645E-01    0.03       1.0  T
   3   -323.5935163 -0.188605E+00  0.786E-02    0.00       1.0  T
   4   -323.5604004  0.331159E-01  0.274E-01    0.01       1.0  T
   5   -323.5951567 -0.347563E-01  0.363E-02    0.00       1.0  T
   6   -323.5955734 -0.416667E-03  0.205E-02    0.00       1.0  T
   7   -323.5954967  0.766658E-04  0.226E-02    0.00       1.0  T
   8   -323.5955428 -0.460827E-04  0.201E-02    0.00       1.0  T
   9   -323.5957338 -0.190971E-03  0.388E-03    0.00       1.9  T
  10   -323.5957393 -0.545509E-05  0.184E-03    0.00       4.1  T
  11   -323.5957407 -0.147659E-05  0.589E-04    0.00      12.8  T
  12   -323.5957409 -0.135641E-06  0.248E-04    0.00      30.4  T
  13   -323.5957409  0.165206E-07  0.299E-04    0.00      25.1  T
  14   -323.5957409 -0.383330E-07  0.104E-04    0.00      72.6  T
  15   -323.5957409 -0.484960E-08  0.411E-06    0.00    1830.7  T
     SCC iter.                  ...        0 min,  2.509 sec
     gradient                   ...        0 min,  0.681 sec
 * total energy  :  -318.4675113 Eh     change       -0.6612876E-02 Eh
   gradient norm :     0.0155408 Eh/α   predicted    -0.6701771E-02 (   1.34%)
   displ. norm   :     0.8084980 α      lambda       -0.6473235E-02
   maximum displ.:     0.5456268 α      in ANC's #19, #33, #24, ...

........................................................................
.............................. CYCLE   29 ..............................
........................................................................
   1   -323.6126625 -0.323613E+03  0.105E-02    0.00       0.0  T
   2   -323.5438639  0.687986E-01  0.387E-01    0.01       1.0  T
   3   -323.6073150 -0.634511E-01  0.117E-01    0.01       1.0  T
   4   -323.6099798 -0.266480E-02  0.772E-02    0.00       1.0  T
   5   -323.6095639  0.415924E-03  0.823E-02    0.00       1.0  T
   6   -323.6126627 -0.309881E-02  0.109E-02    0.00       1.0  T
   7   -323.6124022  0.260454E-03  0.260E-02    0.00       1.0  T
   8   -323.6126708 -0.268592E-03  0.782E-03    0.00       1.0  T
   9   -323.6126897 -0.189121E-04  0.417E-03    0.00       1.8  T
  10   -323.6126975 -0.779680E-05  0.408E-04    0.00      18.4  T
  11   -323.6126972  0.284784E-06  0.883E-04    0.00       8.5  T
  12   -323.6126976 -0.338572E-06  0.212E-04    0.00      35.5  T
  13   -323.6126976  0.173115E-07  0.284E-04    0.00      26.5  T
  14   -323.6126976 -0.324623E-07  0.101E-04    0.00      74.5  T
  15   -323.6126976 -0.467446E-08  0.311E-06    0.00    2414.4  T
     SCC iter.                  ...        0 min,  2.503 sec
     gradient                   ...        0 min,  0.683 sec
 * total energy  :  -318.4722771 Eh     change       -0.4765812E-02 Eh
   gradient norm :     0.0151621 Eh/α   predicted    -0.5352294E-02 (  12.31%)
   displ. norm   :     0.8286104 α      lambda       -0.5761574E-02
   maximum displ.:     0.5816213 α      in ANC's #19, #33, #24, ...

........................................................................
.............................. CYCLE   30 ..............................
........................................................................
   1   -323.6317007 -0.323632E+03  0.149E-02    0.00       0.0  T
   2   -323.4535905  0.178110E+00  0.629E-01    0.06       1.0  T
   3   -323.6297272 -0.176137E+00  0.741E-02    0.00       1.0  T
   4   -323.6278036  0.192361E-02  0.930E-02    0.01       1.0  T
   5   -323.5862897  0.415139E-01  0.309E-01    0.02       1.0  T
   6   -323.6312067 -0.449170E-01  0.341E-02    0.00       1.0  T
   7   -323.6304531  0.753656E-03  0.538E-02    0.00       1.0  T
   8   -323.6317659 -0.131278E-02  0.624E-03    0.00       1.2  T
   9   -323.6317710 -0.516667E-05  0.506E-03    0.00       1.5  T
  10   -323.6317755 -0.441604E-05  0.374E-03    0.00       2.0  T
  11   -323.6317815 -0.605582E-05  0.650E-04    0.00      11.6  T
  12   -323.6317817 -0.168686E-06  0.218E-04    0.00      34.6  T
  13   -323.6317817  0.306449E-08  0.234E-04    0.00      32.1  T
  14   -323.6317817 -0.241211E-07  0.381E-05    0.00     197.3  T
  15   -323.6317817 -0.324405E-09  0.256E-05    0.00     293.6  T
     SCC iter.                  ...        0 min,  2.492 sec
     gradient                   ...        0 min,  0.682 sec
 * total energy  :  -318.4774204 Eh     change       -0.5143272E-02 Eh
   gradient norm :     0.0136138 Eh/α   predicted    -0.4858726E-02 (  -5.53%)
   displ. norm   :     0.8598733 α      lambda       -0.5352948E-02
   maximum displ.:     0.6229869 α      in ANC's #19, #24, #33, ...

........................................................................
.............................. CYCLE   31 ..............................
........................................................................
   1   -323.6528098 -0.323653E+03  0.213E-02    0.00       0.0  T
   2   -323.3424696  0.310340E+00  0.825E-01    0.12       1.0  T
   3   -323.6497366 -0.307267E+00  0.910E-02    0.00       1.0  T
   4   -323.6506425 -0.905887E-03  0.713E-02    0.00       1.0  T
   5   -323.5837257  0.669168E-01  0.380E-01    0.03       1.0  T
   6   -323.6526261 -0.689004E-01  0.271E-02    0.00       1.0  T
   7   -323.6521718  0.454328E-03  0.418E-02    0.00       1.0  T
   8   -323.6529834 -0.811615E-03  0.138E-03    0.00       5.5  T
   9   -323.6529807  0.272533E-05  0.259E-03    0.00       2.9  T
  10   -323.6529808 -0.130955E-06  0.259E-03    0.00       2.9  T
  11   -323.6529838 -0.302220E-05  0.355E-04    0.00      21.2  T
  12   -323.6529839 -0.404576E-07  0.169E-04    0.00      44.5  T
  13   -323.6529839 -0.106958E-07  0.487E-05    0.00     154.2  T
     SCC iter.                  ...        0 min,  2.158 sec
     gradient                   ...        0 min,  0.682 sec
 * total energy  :  -318.4821271 Eh     change       -0.4706767E-02 Eh
   gradient norm :     0.0135037 Eh/α   predicted    -0.4655407E-02 (  -1.09%)
   displ. norm   :     0.8643640 α      lambda       -0.5043173E-02
   maximum displ.:     0.6496326 α      in ANC's #19, #24, #33, ...

........................................................................
.............................. CYCLE   32 ..............................
........................................................................
   1   -323.6748788 -0.323675E+03  0.185E-02    0.00       0.0  T
   2   -323.4120936  0.262785E+00  0.762E-01    0.09       1.0  T
   3   -323.6701929 -0.258099E+00  0.105E-01    0.00       1.0  T
   4   -323.6719732 -0.178025E-02  0.805E-02    0.00       1.0  T
   5   -323.6674893  0.448391E-02  0.126E-01    0.01       1.0  T
   6   -323.6749775 -0.748822E-02  0.934E-03    0.00       1.0  T
   7   -323.6749425  0.349766E-04  0.117E-02    0.00       1.0  T
   8   -323.6750005 -0.579484E-04  0.250E-03    0.00       3.0  T
   9   -323.6749967  0.381552E-05  0.376E-03    0.00       2.0  T
  10   -323.6750021 -0.547181E-05  0.136E-03    0.00       5.5  T
  11   -323.6750029 -0.795114E-06  0.442E-04    0.00      17.0  T
  12   -323.6750030 -0.585515E-07  0.269E-04    0.00      28.0  T
  13   -323.6750030 -0.297020E-07  0.818E-05    0.00      91.9  T
  14   -323.6750030 -0.124442E-08  0.643E-05    0.00     116.8  T
     SCC iter.                  ...        0 min,  2.286 sec
     gradient                   ...        0 min,  0.666 sec
 * total energy  :  -318.4866554 Eh     change       -0.4528289E-02 Eh
   gradient norm :     0.0118497 Eh/α   predicted    -0.4405523E-02 (  -2.71%)
   displ. norm   :     0.8547857 α      lambda       -0.4460667E-02
   maximum displ.:     0.6556826 α      in ANC's #19, #24, #33, ...

........................................................................
.............................. CYCLE   33 ..............................
........................................................................
   1   -323.6929285 -0.323693E+03  0.120E-02    0.00       0.0  T
   2   -323.6876031  0.532542E-02  0.119E-01    0.00       1.0  T
   3   -323.6325062  0.550969E-01  0.356E-01    0.03       1.0  T
   4   -323.6926391 -0.601330E-01  0.265E-02    0.00       1.0  T
   5   -323.6879866  0.465251E-02  0.105E-01    0.01       1.0  T
   6   -323.6921547 -0.416810E-02  0.423E-02    0.00       1.0  T
   7   -323.6928463 -0.691568E-03  0.162E-02    0.00       1.0  T
   8   -323.6929170 -0.707391E-04  0.104E-02    0.00       1.0  T
   9   -323.6929214 -0.435391E-05  0.100E-02    0.00       1.0  T
  10   -323.6929683 -0.468781E-04  0.198E-03    0.00       3.8  T
  11   -323.6929701 -0.184602E-05  0.452E-04    0.00      16.6  T
  12   -323.6929702 -0.924173E-07  0.112E-04    0.00      67.1  T
  13   -323.6929702  0.943299E-08  0.177E-04    0.00      42.6  T
     SCC iter.                  ...        0 min,  2.075 sec
     gradient                   ...        0 min,  0.667 sec
 * total energy  :  -318.4907366 Eh     change       -0.4081167E-02 Eh
   gradient norm :     0.0084170 Eh/α   predicted    -0.3859951E-02 (  -5.42%)
   displ. norm   :     0.8378339 α      lambda       -0.3854734E-02
   maximum displ.:     0.6545721 α      in ANC's #19, #24, #33, ...

........................................................................
.............................. CYCLE   34 ..............................
........................................................................
   1   -323.7084213 -0.323708E+03  0.147E-02    0.00       0.0  T
   2   -323.5390143  0.169407E+00  0.610E-01    0.00       1.0  T
   3   -323.7071578 -0.168143E+00  0.686E-02    0.00       1.0  T
   4   -323.7071978 -0.399680E-04  0.527E-02    0.01       1.0  T
   5   -323.7009694  0.622836E-02  0.126E-01    0.01       1.0  T
   6   -323.7072162 -0.624678E-02  0.537E-02    0.00       1.0  T
   7   -323.7082246 -0.100835E-02  0.245E-02    0.00       1.0  T
   8   -323.7083341 -0.109571E-03  0.197E-02    0.00       1.0  T
   9   -323.7084850 -0.150897E-03  0.757E-03    0.00       1.0  T
  10   -323.7085094 -0.243504E-04  0.258E-03    0.00       2.9  T
  11   -323.7085124 -0.301420E-05  0.698E-05    0.00     107.7  T
  12   -323.7085123  0.734772E-07  0.404E-04    0.00      18.6  T
  13   -323.7085124 -0.711705E-07  0.101E-04    0.00      74.7  T
  14   -323.7085124 -0.273923E-08  0.680E-05    0.00     110.5  T
     SCC iter.                  ...        0 min,  2.279 sec
     gradient                   ...        0 min,  0.678 sec
 * total energy  :  -318.4943009 Eh     change       -0.3564311E-02 Eh
   gradient norm :     0.0065083 Eh/α   predicted    -0.3280319E-02 (  -7.97%)
[...]
   120   6 C    3.917 --   119 C    2.319   121 C    1.379   117 C    0.184
   121   6 C    3.920 --   122 C    2.321   120 C    1.379   124 C    0.185
   122   6 C    3.884 --   121 C    2.321   123 C    1.352   119 C    0.180
   123   6 C    3.932 --   124 C    2.429   122 C    1.352
   124   6 C    3.868 --   123 C    2.429    74 C    1.194   121 C    0.185
   125  27 Co   3.033 --   142 N    0.630   161 N    0.630   149 N    0.626
                           131 N    0.626
   126   6 C    3.921 --   160 C    1.253   127 C    1.252   116 C    1.201
   127   6 C    3.903 --   126 C    1.252   131 N    1.233   128 C    1.193
   128   6 C    3.960 --   129 C    1.632   127 C    1.193   162 H    0.974
   129   6 C    3.959 --   128 C    1.632   130 C    1.185   163 H    0.973
   130   6 C    3.915 --   132 C    1.321   131 N    1.197   129 C    1.185
   131   7 N    3.339 --   127 C    1.233   130 C    1.197   125 Co   0.626
   132   6 C    3.926 --   139 C    1.324   130 C    1.321   133 C    1.032
   133   6 C    3.986 --   134 C    1.391   138 C    1.391   132 C    1.032
                           136 N    0.106
   134   6 C    3.985 --   135 C    1.442   133 C    1.391   164 H    0.973
                           137 C    0.109
   135   6 C    3.972 --   134 C    1.442   136 N    1.416   165 H    0.972
                           138 C    0.109
   136   7 N    3.030 --   135 C    1.416   137 C    1.416   133 C    0.106
   137   6 C    3.972 --   138 C    1.442   136 N    1.416   166 H    0.972
                           134 C    0.109
   138   6 C    3.986 --   137 C    1.442   133 C    1.391   167 H    0.973
                           135 C    0.109
   139   6 C    3.915 --   132 C    1.324   142 N    1.195   140 C    1.184
   140   6 C    3.959 --   141 C    1.634   139 C    1.184   168 H    0.973
   141   6 C    3.959 --   140 C    1.634   143 C    1.192   169 H    0.973
   142   7 N    3.338 --   143 C    1.234   139 C    1.195   125 Co   0.630
   143   6 C    3.903 --   144 C    1.253   142 N    1.234   141 C    1.192
   144   6 C    3.921 --   143 C    1.253   145 C    1.252   117 C    1.202
   145   6 C    3.903 --   144 C    1.252   149 N    1.232   146 C    1.193
   146   6 C    3.960 --   147 C    1.633   145 C    1.193   170 H    0.974
   147   6 C    3.959 --   146 C    1.633   148 C    1.185   171 H    0.973
   148   6 C    3.915 --   150 C    1.321   149 N    1.197   147 C    1.185
   149   7 N    3.339 --   145 C    1.232   148 C    1.197   125 Co   0.626
   150   6 C    3.926 --   157 C    1.324   148 C    1.321   151 C    1.032
   151   6 C    3.986 --   156 C    1.391   152 C    1.391   150 C    1.032
                           154 N    0.106
   152   6 C    3.985 --   153 C    1.442   151 C    1.391   172 H    0.973
                           155 C    0.109
   153   6 C    3.972 --   152 C    1.442   154 N    1.416   173 H    0.972
                           156 C    0.109
   154   7 N    3.030 --   155 C    1.416   153 C    1.416   151 C    0.106
   155   6 C    3.972 --   156 C    1.442   154 N    1.416   174 H    0.972
                           152 C    0.109
   156   6 C    3.986 --   155 C    1.442   151 C    1.391   175 H    0.972
                           153 C    0.109
   157   6 C    3.915 --   150 C    1.324   161 N    1.195   158 C    1.183
   158   6 C    3.959 --   159 C    1.634   157 C    1.183   176 H    0.973
   159   6 C    3.959 --   158 C    1.634   160 C    1.192   177 H    0.973
   160   6 C    3.903 --   126 C    1.253   161 N    1.234   159 C    1.192
   161   7 N    3.338 --   160 C    1.234   157 C    1.195   125 Co   0.630
   162   1 H    1.001 --   128 C    0.974
   163   1 H    1.003 --   129 C    0.973
   164   1 H    1.004 --   134 C    0.973
   165   1 H    1.013 --   135 C    0.972
   166   1 H    1.013 --   137 C    0.972
   167   1 H    1.004 --   138 C    0.973
   168   1 H    1.003 --   140 C    0.973
   169   1 H    1.001 --   141 C    0.973
   170   1 H    1.001 --   146 C    0.974
   171   1 H    1.003 --   147 C    0.973
   172   1 H    1.004 --   152 C    0.973
   173   1 H    1.013 --   153 C    0.972
   174   1 H    1.013 --   155 C    0.972
   175   1 H    1.004 --   156 C    0.972
   176   1 H    1.003 --   158 C    0.973
   177   1 H    1.001 --   159 C    0.973
 ---------------------------------------------------------------------------

Topologies differ in total number of bonds
Writing topology from bond orders to xtbtopo.mol

 dipole moment from electron density (au)
     X       Y       Z   
   0.0642   0.0803   0.0985  total (Debye):    0.362

           -------------------------------------------------
          |                Geometry Summary                 |
           -------------------------------------------------

      molecular mass/u    :     1752.4552836
   center of mass at/Å    :       38.1936193       0.0040581      -0.0143214
  moments of inertia/u·Å² :        0.2496318E+05   0.3835602E+06   0.4038193E+06
rotational constants/cm⁻¹ :        0.6752998E-03   0.4395042E-04   0.4174548E-04

 * 178 selected distances

     #   Z          #   Z                                           value/Å
     2   6 C        3   6 C                                       1.3784459
     3   6 C        4   6 C                                       1.4314147
     4   6 C        5   6 C                                       1.3534989
     5   6 C        6   6 C                                       1.4340082 (max)
     3   6 C        7   7 N                                       1.3723156
     6   6 C        7   7 N                                       1.3717453
     6   6 C        8   6 C                                       1.3882396
     9   6 C       10   6 C                                       1.3937133
    10   6 C       11   6 C                                       1.3861396
    11   6 C       12   7 N                                       1.3290250
    12   7 N       13   6 C                                       1.3290224
     9   6 C       14   6 C                                       1.3937597
    13   6 C       14   6 C                                       1.3861363
     8   6 C       15   6 C                                       1.3862119
    15   6 C       16   6 C                                       1.4322126
    16   6 C       17   6 C                                       1.3545147
    15   6 C       18   7 N                                       1.3768291
    17   6 C       19   6 C                                       1.4288252
    18   7 N       19   6 C                                       1.3664642
    19   6 C       20   6 C                                       1.3975436
    20   6 C       21   6 C                                       1.3973782
    21   6 C       22   6 C                                       1.4286106
    22   6 C       23   6 C                                       1.3549525
    23   6 C       24   6 C                                       1.4320105
    21   6 C       25   7 N                                       1.3666140
    24   6 C       25   7 N                                       1.3763049
    24   6 C       26   6 C                                       1.3868875
    27   6 C       28   6 C                                       1.3946601
    28   6 C       29   6 C                                       1.3858130
    29   6 C       30   7 N                                       1.3291720
    30   7 N       31   6 C                                       1.3291588
    27   6 C       32   6 C                                       1.3945458
    31   6 C       32   6 C                                       1.3859104
    26   6 C       33   6 C                                       1.3889774
    33   6 C       34   6 C                                       1.4337894
    34   6 C       35   6 C                                       1.3538820
     2   6 C       36   6 C                                       1.3782944
    35   6 C       36   6 C                                       1.4312787
    33   6 C       37   7 N                                       1.3711645
    36   6 C       37   7 N                                       1.3726016
     2   6 C       38   1 H                                       1.0835697
     4   6 C       39   1 H                                       1.0783752
     5   6 C       40   1 H                                       1.0778864
    10   6 C       41   1 H                                       1.0834302
    11   6 C       42   1 H                                       1.0860819
    13   6 C       43   1 H                                       1.0860761
    14   6 C       44   1 H                                       1.0834410
    16   6 C       45   1 H                                       1.0777346
    17   6 C       46   1 H                                       1.0780734
    22   6 C       47   1 H                                       1.0780888
    23   6 C       48   1 H                                       1.0777778
    28   6 C       49   1 H                                       1.0834947
    29   6 C       50   1 H                                       1.0860871
    31   6 C       51   1 H                                       1.0860869
    32   6 C       52   1 H                                       1.0834925
    34   6 C       53   1 H                                       1.0779229
    35   6 C       54   1 H                                       1.0783681
    56   6 C       57   6 C                                       1.3781958
    57   6 C       58   6 C                                       1.4313321
    58   6 C       59   6 C                                       1.3533226
    59   6 C       60   6 C                                       1.4339699
    57   6 C       61   7 N                                       1.3722997
    60   6 C       61   7 N                                       1.3717093
    60   6 C       62   6 C                                       1.3880656
    63   6 C       64   6 C                                       1.3937356
    64   6 C       65   6 C                                       1.3861218
    65   6 C       66   7 N                                       1.3290206
    66   7 N       67   6 C                                       1.3290043
    63   6 C       68   6 C                                       1.3937223
    67   6 C       68   6 C                                       1.3861595
    62   6 C       69   6 C                                       1.3858571
    69   6 C       70   6 C                                       1.4321784
    70   6 C       71   6 C                                       1.3542902
    69   6 C       72   7 N                                       1.3770144
    71   6 C       73   6 C                                       1.4288116
    72   7 N       73   6 C                                       1.3662966
    73   6 C       74   6 C                                       1.3974632
    74   6 C       75   6 C                                       1.3973024
    75   6 C       76   6 C                                       1.4285973
    76   6 C       77   6 C                                       1.3546748
    77   6 C       78   6 C                                       1.4320173
    75   6 C       79   7 N                                       1.3663511
    78   6 C       79   7 N                                       1.3766918
    78   6 C       80   6 C                                       1.3863651
    81   6 C       82   6 C                                       1.3945772
    82   6 C       83   6 C                                       1.3858348
    83   6 C       84   7 N                                       1.3291542
    84   7 N       85   6 C                                       1.3291288
    81   6 C       86   6 C                                       1.3943966
    85   6 C       86   6 C                                       1.3859639
    80   6 C       87   6 C                                       1.3887539
    87   6 C       88   6 C                                       1.4337346
    88   6 C       89   6 C                                       1.3536730
    56   6 C       90   6 C                                       1.3779794
    89   6 C       90   6 C                                       1.4312765
    87   6 C       91   7 N                                       1.3710130
    90   6 C       91   7 N                                       1.3726632
    56   6 C       92   1 H                                       1.0835877
    58   6 C       93   1 H                                       1.0783637
    59   6 C       94   1 H                                       1.0778597
    64   6 C       95   1 H                                       1.0834341
    65   6 C       96   1 H                                       1.0860831
    67   6 C       97   1 H                                       1.0860723
    68   6 C       98   1 H                                       1.0834335
    70   6 C       99   1 H                                       1.0777179 (min)
    71   6 C      100   1 H                                       1.0780548
    76   6 C      101   1 H                                       1.0780676
    77   6 C      102   1 H                                       1.0777448
    82   6 C      103   1 H                                       1.0834987
    83   6 C      104   1 H                                       1.0860858
    85   6 C      105   1 H                                       1.0860778
    86   6 C      106   1 H                                       1.0834778
    88   6 C      107   1 H                                       1.0779112
    89   6 C      108   1 H                                       1.0783608
   109   6 C      110   6 C                                       1.2251413
   111   6 C      112   6 C                                       1.2316399
   113   6 C      114   6 C                                       1.2318284
   115   6 C      116   6 C                                       1.2256384
   117   6 C      118   6 C                                       1.2258318
   119   6 C      120   6 C                                       1.2319253
   121   6 C      122   6 C                                       1.2317942
   123   6 C      124   6 C                                       1.2253019
   126   6 C      127   6 C                                       1.3988798
   127   6 C      128   6 C                                       1.4280687
   128   6 C      129   6 C                                       1.3558458
   129   6 C      130   6 C                                       1.4312714
   127   6 C      131   7 N                                       1.3659071
   130   6 C      131   7 N                                       1.3750055
   130   6 C      132   6 C                                       1.3884851
   133   6 C      134   6 C                                       1.3945054
   134   6 C      135   6 C                                       1.3859323
   135   6 C      136   7 N                                       1.3291080
   136   7 N      137   6 C                                       1.3291035
   133   6 C      138   6 C                                       1.3945645
   137   6 C      138   6 C                                       1.3859126
   132   6 C      139   6 C                                       1.3879641
   139   6 C      140   6 C                                       1.4315286
   140   6 C      141   6 C                                       1.3555760
   139   6 C      142   7 N                                       1.3756679
   141   6 C      143   6 C                                       1.4283190
   142   7 N      143   6 C                                       1.3659089
   143   6 C      144   6 C                                       1.3989310
   144   6 C      145   6 C                                       1.3990194
   145   6 C      146   6 C                                       1.4281274
   146   6 C      147   6 C                                       1.3558703
   147   6 C      148   6 C                                       1.4312611
   145   6 C      149   7 N                                       1.3660084
   148   6 C      149   7 N                                       1.3748656
   148   6 C      150   6 C                                       1.3885010
   151   6 C      152   6 C                                       1.3945873
   152   6 C      153   6 C                                       1.3858615
   153   6 C      154   7 N                                       1.3290936
   154   7 N      155   6 C                                       1.3290674
   151   6 C      156   6 C                                       1.3944705
   155   6 C      156   6 C                                       1.3859676
   150   6 C      157   6 C                                       1.3879761
   157   6 C      158   6 C                                       1.4315748
   158   6 C      159   6 C                                       1.3555183
   126   6 C      160   6 C                                       1.3987251
   159   6 C      160   6 C                                       1.4282830
   157   6 C      161   7 N                                       1.3757654
   160   6 C      161   7 N                                       1.3658957
   128   6 C      162   1 H                                       1.0780579
   129   6 C      163   1 H                                       1.0777727
   134   6 C      164   1 H                                       1.0834582
   135   6 C      165   1 H                                       1.0860097
   137   6 C      166   1 H                                       1.0860204
   138   6 C      167   1 H                                       1.0834773
   140   6 C      168   1 H                                       1.0777652
   141   6 C      169   1 H                                       1.0780605
   146   6 C      170   1 H                                       1.0780644
   147   6 C      171   1 H                                       1.0777844
   152   6 C      172   1 H                                       1.0834731
   153   6 C      173   1 H                                       1.0860411
   155   6 C      174   1 H                                       1.0860331
   156   6 C      175   1 H                                       1.0834678
   158   6 C      176   1 H                                       1.0777349
   159   6 C      177   1 H                                       1.0780570

 * 3 distinct bonds (by element types)

   Z      Z             #   av. dist./Å        max./Å        min./Å
   1 H    6 C          50     1.0814619     1.0860871     1.0777179
   6 C    6 C          92     1.3819637     1.4340082     1.2251413
   6 C    7 N          36     1.3572823     1.3770144     1.3290043


optimized geometry written to: xtbopt.xyz


           -------------------------------------------------
          | TOTAL ENERGY             -318.517206713613 Eh   |
          | GRADIENT NORM               0.000470269556 Eh/α |
          | HOMO-LUMO GAP               0.003706232309 eV   |
           -------------------------------------------------

------------------------------------------------------------------------
 * finished run on 2022/07/29 at 23:13:12.971     
------------------------------------------------------------------------
 total:
 * wall-time:     0 d,  0 h,  4 min, 28.001 sec
 *  cpu-time:     0 d,  0 h,  4 min, 25.959 sec
 * ratio c/w:     0.992 speedup
 SCF:
 * wall-time:     0 d,  0 h,  0 min, 13.918 sec
 *  cpu-time:     0 d,  0 h,  0 min, 13.799 sec
 * ratio c/w:     0.991 speedup
 ANC optimizer:
 * wall-time:     0 d,  0 h,  4 min, 13.875 sec
 *  cpu-time:     0 d,  0 h,  4 min, 11.959 sec
 * ratio c/w:     0.992 speedup

