130
 energy: -257.108303850655 gnorm: 0.416659440917 xtb: 6.5.1 (b24c23e)
Co          14.49221800000000       -0.02931900000000        0.00115800000000
C           11.15907800000000        0.12169300000000        0.10756800000000
C           11.82589000000000        1.27863900000000        0.08616800000000
C           11.17751900000000        2.58425700000000        0.08496400000000
C           12.12116000000000        3.50632700000000        0.07700300000000
C           13.42630600000000        2.83127800000000        0.07493500000000
N           13.24632400000000        1.41505200000000        0.07997000000000
C           14.62025600000000        3.45616900000000        0.10485200000000
C           14.65778100000000        4.93487200000000        0.11236700000000
C           14.44844100000000        5.65014700000000       -1.07460700000000
C           14.47009500000000        7.04848600000000       -1.07167000000000
O           14.25581900000000        7.72966400000000       -2.27005800000000
C           14.70316000000000        7.74414500000000        0.12848200000000
O           14.71878800000000        9.13967800000000        0.12441600000000
C           14.91693500000000        7.02813100000000        1.32057400000000
O           15.14978000000000        7.71083000000000        2.51321500000000
C           14.89445800000000        5.62690100000000        1.30718100000000
C           15.91846400000000        2.73206400000000        0.14320700000000
C           17.21773700000000        3.40159000000000        0.27463100000000
C           18.15206300000000        2.47442000000000        0.25997700000000
N           16.05308700000000        1.44429000000000        0.04262200000000
C           17.45895800000000        1.20051800000000        0.10844900000000
C           18.05416700000000       -0.00019000000000        0.00005200000000
C           17.30120800000000       -1.26572100000000       -0.18009900000000
C           17.86649700000000       -2.42766300000000       -0.48522600000000
C           16.81900100000000       -3.42672200000000       -0.51542400000000
C           15.67731200000000       -2.81255500000000       -0.22936800000000
N           15.89106300000000       -1.41583700000000       -0.00307800000000
C           14.36820100000000       -3.50626900000000       -0.11089900000000
C           14.34938500000000       -4.98505100000000       -0.12950500000000
C           14.49601500000000       -5.70305300000000        1.06390400000000
C           14.47473100000000       -7.10151500000000        1.05504600000000
O           14.61646000000000       -7.78679900000000        2.26177800000000
C           14.31140400000000       -7.79348100000000       -0.15893900000000
O           14.29457400000000       -9.18891500000000       -0.15995500000000
C           14.16950000000000       -7.07370000000000       -1.35948300000000
O           14.01206000000000       -7.75310400000000       -2.56669200000000
C           14.18767300000000       -5.67238800000000       -1.33946900000000
C           13.20552700000000       -2.84109400000000        0.01119600000000
C           11.88159700000000       -3.44926500000000        0.12991100000000
C           11.02258700000000       -2.45062200000000        0.18164600000000
C           11.78869700000000       -1.20799100000000        0.10165300000000
N           13.06343000000000       -1.42274300000000        0.00120800000000
H           10.07619500000000        0.15447700000000        0.13218800000000
H           10.11289200000000        2.78001700000000        0.09407700000000
H           11.93747900000000        4.57297700000000        0.08356000000000
H           14.26471000000000        5.11982500000000       -2.00129900000000
H           14.26079300000000        8.74110400000000       -2.32303300000000
H           14.86916200000000        9.67993300000000        0.96742200000000
H           15.30609300000000        7.21850400000000        3.38513600000000
H           15.05718500000000        5.07630200000000        2.22584000000000
H           17.40130400000000        4.46415000000000        0.36454500000000
H           19.21585100000000        2.65759600000000        0.33473200000000
H           18.91614900000000       -2.61257100000000       -0.66719900000000
H           16.95389500000000       -4.48148800000000       -0.71836700000000
H           14.62319000000000       -5.17529800000000        2.00135300000000
H           14.59814300000000       -8.79786600000000        2.31214500000000
H           14.18068100000000       -9.72703200000000       -1.01038200000000
H           13.91222200000000       -7.25880400000000       -3.44611000000000
H           14.07733300000000       -5.11890500000000       -2.26451300000000
H           11.62970500000000       -4.50142400000000        0.16440400000000
H            9.94758800000000       -2.54842500000000        0.26509100000000
Co          30.93316700000000        0.02862600000000        0.00445300000000
C           34.26630599999999       -0.13347400000000        0.09306000000000
C           33.59949400000000       -1.28053800000000       -0.05933700000000
C           34.24786500000000       -2.57760600000000       -0.20851900000000
C           33.30422500000000       -3.49283200000000       -0.32094100000000
C           31.99907800000000       -2.82189800000000       -0.24648200000000
N           32.17906000000000       -1.41537000000000       -0.08095600000000
C           30.80512800000000       -3.44615300000000       -0.28758700000000
C           30.76760400000000       -4.91617900000000       -0.44772500000000
C           30.97694300000000       -5.49230600000000       -1.70812200000000
C           30.95528900000000       -6.88196700000000       -1.86369900000000
O           31.16956600000000       -7.42292300000000       -3.13157300000000
C           30.72222500000000       -7.70917400000000       -0.75013200000000
O           30.70659700000000       -9.09525300000000       -0.91234900000000
C           30.50845000000000       -7.13289300000000        0.51543500000000
O           30.27560400000000       -7.94637200000000        1.62300900000000
C           30.53092600000000       -5.73917500000000        0.66095100000000
C           29.50692099999999       -2.73106200000000       -0.16740400000000
C           28.20764700000000       -3.41117000000000       -0.11271500000000
C           27.27332200000000       -2.48831400000000       -0.02218400000000
N           29.37229700000000       -1.44018600000000       -0.12137800000000
C           27.96642600000000       -1.20544700000000       -0.02834500000000
C           27.37121700000000       -0.00019000000000        0.00005200000000
C           28.12417700000000        1.27760500000000       -0.03549500000000
C           27.55888700000000        2.46664300000000       -0.20695600000000
C           28.60638300000000        3.46268800000000       -0.12372000000000
C           29.74807300000000        2.82005500000000        0.09088000000000
N           29.53432200000000        1.40669000000000        0.15739900000000
C           31.05718299999999        3.49587100000000        0.28721500000000
C           31.07599900000000        4.96723100000000        0.43634200000000
C           30.92936900000000        5.54533900000000        1.70344200000000
C           30.95065300000000        6.93579200000000        1.85315100000000
O           30.80892500000000        7.47988300000000        3.12978000000000
C           31.11398000000000        7.76089900000000        0.72542100000000
O           31.13081100000000        9.14745600000000        0.88257700000000
C           31.25588399999999        7.18183300000000       -0.54897100000000
O           31.41332400000000        7.99369000000000       -1.67139300000000
C           31.23771200000000        5.78728300000000       -0.68791800000000
C           32.21985700000000        2.82114300000000        0.33312800000000
C           33.54378700000000        3.41193900000000        0.52001200000000
C           34.40279800000000        2.41386800000000        0.45822100000000
C           33.63668700000000        1.18831100000000        0.23789700000000
N           32.36195400000000        1.41306500000000        0.16244100000000
H           35.34919000000000       -0.16883700000000        0.11380500000000
H           35.31249200000000       -2.77313700000000       -0.22165300000000
H           33.48790500000000       -4.55335100000000       -0.43532600000000
H           31.16067500000000       -4.86036500000000       -2.56873200000000
H           31.16459200000000       -8.42184000000000       -3.29884900000000
H           30.55622300000000       -9.72757800000000       -0.13601100000000
H           30.11929100000000       -7.55604800000000        2.54511400000000
H           30.36820000000000       -5.29625000000000        1.63609800000000
H           28.02408100000000       -4.47707300000000       -0.14381700000000
H           26.20953300000000       -2.67878300000000        0.03132700000000
H           26.50923500000000        2.67098600000000       -0.36679800000000
H           28.47149000000000        4.53365900000000       -0.20580200000000
H           30.80219400000000        4.91472900000000        2.57503100000000
H           30.82724100000000        8.47872500000000        3.29442200000000
H           31.24470400000000        9.77849800000000        0.09862400000000
H           31.51316300000000        7.60225400000000       -2.60117000000000
H           31.34805100000000        5.34221700000000       -1.66973600000000
H           33.79567900000000        4.45340800000000        0.67354000000000
H           35.47779600000000        2.50158200000000        0.55221400000000
C           23.31661200000000        0.00112200000000        0.00848500000000
C           22.10767299999999       -0.01233300000000        0.00003700000000
C           20.68614400000000       -0.00351400000000       -0.01194600000000
C           19.47447500000000        0.00392500000000       -0.00108300000000
C           24.73321700000000       -0.00555300000000        0.00901800000000
C           25.95391300000000        0.00392500000000       -0.00108300000000
130
 energy: -257.217736808279 gnorm: 0.239229851129 xtb: 6.5.1 (b24c23e)
Co          14.50944826095681       -0.01468146752469        0.00876612762344
C           11.15928652330611        0.10026212465712        0.10794413368396
C           11.83476258833208        1.27301748087105        0.08507480224135
C           11.18274789632365        2.57157042332459        0.08496480139857
C           12.13961196282070        3.50309957995936        0.07639550831625
C           13.43195696260761        2.81857881128200        0.07213372287277
N           13.23343605118247        1.42121692298372        0.07805479637885
C           14.63924892990905        3.45416394570134        0.10282947556783
C           14.66533462005276        4.94374574296058        0.11095639613779
C           14.44872799028683        5.66392647181912       -1.06919982297594
C           14.47111228303374        7.06384810794428       -1.06334045242201
O           14.25738296368964        7.71997338349959       -2.25830510376949
C           14.70567459028761        7.75473966356035        0.14192522624682
O           14.71680906381484        9.13840861131550        0.11489180756933
C           14.91865686717466        7.02808390507634        1.32768821440506
O           15.14721343092087        7.72138922839255        2.50265658501826
C           14.89752113054582        5.63149038436290        1.30538509909217
C           15.90456103592908        2.74942406840038        0.14376059927539
C           17.19496978524949        3.41611580761147        0.27293975194009
C           18.13984602423612        2.46580128712118        0.25834243309848
N           16.05287525350034        1.43808057083734        0.05265208584943
C           17.44659452513013        1.20067360121825        0.10887923898474
C           18.04733723640908       -0.01776906838525       -0.00751351413421
C           17.28447711324741       -1.25459850844872       -0.17368935379681
C           17.86699544355391       -2.45167032445666       -0.48508266956593
C           16.84137058797155       -3.42874000225556       -0.51459951392516
C           15.66472093220190       -2.79536932753977       -0.22106612874016
N           15.88411608643711       -1.41051967252423       -0.02185744136596
C           14.38905892768879       -3.49293995166288       -0.10821443670819
C           14.36423984858865       -4.98766471824130       -0.12998547288258
C           14.49784092380748       -5.71474583752206        1.05833853806517
C           14.47284174638291       -7.11547225824979        1.04648365654581
O           14.61440180154874       -7.77625431989592        2.24965919087679
C           14.31006312733067       -7.80292094024170       -0.17256285237604
O           14.29533787806077       -9.18679427447719       -0.15033393649723
C           14.16886713176215       -7.07139747149598       -1.36602191981754
O           14.01246144474399       -7.76211512332579       -2.55485924460801
C           14.19068536414292       -5.67364634541210       -1.33726416687237
C           13.21255397111487       -2.83033617327914        0.01261800603772
C           11.89577352693871       -3.43984414216358        0.12852583458462
C           11.01393246662207       -2.43145477404220        0.18058460883168
C           11.77207818595029       -1.19379413861141        0.10193154069102
N           13.07107839502711       -1.41954642571111        0.00787339808369
H           10.07658169907200        0.14092003987179        0.13281252253338
H           10.11717229255154        2.76142831305046        0.09399625304302
H           11.96254100623081        4.57060770372200        0.08255759718132
H           14.26634094720140        5.13091159895153       -1.99701590816153
H           14.26817551997024        8.70608771511448       -2.28172998035564
H           14.86712184911162        9.63086102622311        0.95570585397157
H           15.29686442865478        7.21453663780397        3.33565245456761
H           15.05729006912866        5.07860847451588        2.22409607144667
H           17.38066264154095        4.47437926741086        0.36393685390785
H           19.20648259627871        2.63668429263102        0.33286788756339
H           18.91610664374743       -2.62322650306017       -0.66842552106894
H           16.96484189595945       -4.48095657883246       -0.72014201527977
H           14.62329995707832       -5.18612915900357        1.99763071704719
H           14.59396403978798       -8.76227952809463        2.27025768394922
H           14.18292322623903       -9.67742759879641       -0.99833162124261
H           13.91854115071374       -7.25455975490161       -3.39566314352793
H           14.07816838061513       -5.11990784561893       -2.26236128784935
H           11.65315938894360       -4.49462963412298        0.16274176248352
H            9.94253718185439       -2.53128507047255        0.26516724543513
Co          30.91587148460281        0.01320115557628        0.01035721160851
C           34.26609451733214       -0.11222712333003        0.09586280492696
C           33.59061390623359       -1.27482845957424       -0.05978531735184
C           34.24262079016027       -2.56500139776977       -0.20707991623910
C           33.28574096363903       -3.48954794532221       -0.32117661737090
C           31.99338654996371       -2.80893346019317       -0.24782227740112
N           32.19193027474821       -1.42125507233209       -0.08356490739623
C           30.78602978916221       -3.44382823452461       -0.28936572864495
C           30.76001009309487       -4.92478106670647       -0.45013053522702
C           30.97665042311615       -5.50658868453907       -1.70430299168933
C           30.95427238075381       -6.89816102559984       -1.85715917621737
O           31.16800284437269       -7.41461948706846       -3.11879182210001
C           30.71970978709300       -7.72121668238804       -0.73797494551778
O           30.70857677409613       -9.09290555145282       -0.92166679183022
C           30.50672993483206       -7.13363851082480        0.52250735490555
O           30.27817418229772       -7.95565804986147        1.61131812324253
C           30.52785706003716       -5.74350978233383        0.65864322976380
C           29.52062832694514       -2.74820593651855       -0.16883485181064
C           28.23034735924577       -3.42537435130828       -0.11606541475070
C           27.28530167390919       -2.47961983224828       -0.02284148281537
N           29.37193154385711       -1.43490159575333       -0.11070143464811
C           27.97799645579760       -1.20561248972710       -0.02775925582608
C           27.37654354582790        0.01828823301168       -0.00427388104723
C           28.14081443453534        1.26578145961835       -0.03024836729839
C           27.55844192205661        2.49044816102200       -0.20412009346335
C           28.58405619984509        3.46458997106895       -0.12267946904433
C           29.76068249149756        2.80202408333868        0.09717409501251
N           29.54122374435309        1.40350689320693        0.13811795622780
C           31.03633203620192        3.48232142073111        0.28837244263745
C           31.06114750909975        4.96988096451516        0.43616070613908
C           30.92754328389469        5.55758634424191        1.69923770045501
C           30.95254201920117        6.95062977633874        1.84622543517757
O           30.81098344119039        7.47077922592848        3.11654355495682
C           31.11532085786000        7.77182229322953        0.71295442031025
O           31.13004727332084        9.14425771312950        0.89189566252137
C           31.25651658179802        7.18028602841065       -0.55572876610359
O           31.41292258633187        8.00130132219356       -1.65861469139639
C           31.23470026950467        5.78828261064005       -0.68558497386793
C           32.21283495761681        2.81029038538352        0.33332160532759
C           33.52961074658253        3.40273512290221        0.51756770128762
C           34.41145145778802        2.39494270367631        0.45499369975039
C           33.65329939453635        1.17417659561171        0.23656508400268
N           32.35429895410698        1.40912529266947        0.16870371141493
H           35.34880052196308       -0.15544095734635        0.11596117134737
H           35.30819944870917       -2.75466234457534       -0.21962665121920
H           33.46282370937359       -4.55087627118129       -0.43605252913169
H           31.15904175009887       -4.87185953945228       -2.56573339574233
H           31.15720878832442       -8.39172510417777       -3.25383996998695
H           30.55826309125381       -9.67749116613130       -0.14209073681280
H           30.12851903179932       -7.54649613571436        2.49639814985225
H           30.36809141405331       -5.29833820613994        1.63410601272978
H           28.04475565377999       -4.48715415531792       -0.14558803149987
H           26.21873697858939       -2.65790433081472        0.03186276133621
H           26.50930978836709        2.68169932620621       -0.36678948111752
H           28.46056150343010        4.53332383441944       -0.20762626096692
H           30.80208406807964        4.92591194744297        2.57256052118606
H           30.83141981583803        8.44811533597996        3.24877101622555
H           31.24246156326094        9.72784706523940        0.10497443188129
H           31.50684359007406        7.59231920859185       -2.55152951267116
H           31.34721598678732        5.34296918708886       -1.66748469324800
H           33.77222483150977        4.44684514248107        0.67111804405713
H           35.48284663322611        2.48454210752033        0.55034648970202
C           23.32826878551375        0.00114457595408        0.00846487922053
C           22.09814825329914       -0.01311382053113       -0.00187800161494
C           20.70376101292721       -0.01015740531384       -0.01152066094010
C           19.47662759892916       -0.02215904081670        0.00197821618235
C           24.72079235669556        0.00191423105120        0.00537826391245
C           25.94828420817559        0.02896724464531        0.00540320210442
130
 energy: -257.281294893249 gnorm: 0.083107335091 xtb: 6.5.1 (b24c23e)
Co          14.53640259055200       -0.00146681173384        0.01153126849028
C           11.16616615835948        0.07863352794364        0.10829608451271
C           11.85002718931245        1.27204773920628        0.08284374818151
C           11.19245016159312        2.55794849086477        0.08456118095324
C           12.16044299343506        3.49650910917516        0.07493695779629
C           13.43477474820642        2.80308119760667        0.06869712571285
N           13.22022478680374        1.43237135300568        0.07709747901957
C           14.66143063712522        3.44718539098750        0.10223854901185
C           14.67055553739883        4.94834184240099        0.11094363983959
C           14.44975739325293        5.67258648115518       -1.06237204963341
C           14.47202439824317        7.07318545152129       -1.05623059720546
O           14.25894036391733        7.70714383112462       -2.24467273346209
C           14.70715632866478        7.76198075103090        0.15051261548649
O           14.71402225047604        9.13486557880067        0.10139425179250
C           14.91977374250510        7.02864365235014        1.33118083449701
O           15.14344973892494        7.73685900637731        2.48719004260654
C           14.90066587134029        5.63545406275728        1.30439530466217
C           15.88790941936978        2.76567083674755        0.14503498207161
C           17.16948931790898        3.42056218989663        0.26851592377114
C           18.11917823527706        2.45198810922911        0.25558701266370
N           16.05365044461045        1.42093125382628        0.06558155252686
C           17.42806225952743        1.19903757436619        0.11446653353411
C           18.04430575850368       -0.04292622992637       -0.01296351233855
C           17.27040551252502       -1.24082733641834       -0.17070070542606
C           17.86265679143067       -2.48039211929126       -0.48146003115284
C           16.87014088000478       -3.42388040490404       -0.50827491461908
C           15.65269643208275       -2.77406013066944       -0.21598662197325
N           15.88925737443378       -1.40996764291035       -0.04034633289112
C           14.42063316472904       -3.47233543948896       -0.10819047879055
C           14.38210040048751       -4.98399416312409       -0.13226973082436
C           14.50223506773601       -5.71987588336547        1.05029529499487
C           14.47196453681119       -7.12188511176370        1.03884951913653
O           14.61159350089748       -7.76128166197415        2.23572995238921
C           14.30925202014796       -7.80767950526823       -0.18117064695638
O           14.29653806728604       -9.18117520497915       -0.13670295521141
C           14.16891872280283       -7.06777139988202       -1.36844904971525
O           14.01250990555985       -7.77428110946992       -2.53740675819595
C           14.19597263663742       -5.67263803825004       -1.33569788636959
C           13.22014969191587       -2.81105034431568        0.01709867015496
C           11.91582256571601       -3.42253616519909        0.12722958907844
C           11.01459701377137       -2.41153422073031        0.17772524197296
C           11.75670875370337       -1.17724952780470        0.10315417632604
N           13.08563489315678       -1.41776620801886        0.01863504320664
H           10.08236631552115        0.13154554201040        0.13472949821922
H           10.12588089756344        2.73881022291422        0.09407673103054
H           11.99267914556145        4.56460065122888        0.08120150927831
H           14.26832116953261        5.14199430230158       -1.99207616196091
H           14.27750392224246        8.67305959790136       -2.22865537370020
H           14.86614913807463        9.57423474618738        0.94888217798742
H           15.28686029608784        7.20812765174952        3.28215235442221
H           15.05897745777635        5.08235070921461        2.22393786355940
H           17.35742023376982        4.47726638525721        0.36128190365550
H           19.18861023779926        2.61015815309723        0.32967788768137
H           18.91397262074112       -2.63093096713545       -0.66652217896690
H           16.97248874323961       -4.47670929782901       -0.71798891475117
H           14.62524410905635       -5.19629535859035        1.99309553451017
H           14.58783325870717       -8.72742620021196        2.21625518048040
H           14.18463634573132       -9.61940330805698       -0.99106952033602
H           13.92522666431409       -7.24697012783198       -3.34107463315806
H           14.08052922960668       -5.12148126884021       -2.26251132984524
H           11.68357444792492       -4.48028059077362        0.16020632754478
H            9.94454936280448       -2.51350827261538        0.26348860914345
Co          30.88896462717770       -0.00015407771453        0.01159675419865
C           34.25921193898567       -0.09077909419298        0.09866106526661
C           33.57532959885279       -1.27360625620436       -0.06189564189936
C           34.23289179398724       -2.55142410389771       -0.20594026645410
C           33.26488797301787       -3.48283684825503       -0.32187632110830
C           31.99054305673013       -2.79315258736420       -0.24948166425645
N           32.20511299551556       -1.43221364199523       -0.08577933474309
C           30.76383276651418       -3.43680764851220       -0.28917121789290
C           30.75474208734833       -4.92932624661815       -0.45067073869325
C           30.97560097696251       -5.51595331068436       -1.69850021469205
C           30.95336157561094       -6.90823101412370       -1.85115084997697
O           31.16644758090708       -7.40340580922849       -3.10379016010963
C           30.71822964430648       -7.72937621220499       -0.73026344212871
O           30.71136350725913       -9.08784576419323       -0.93467599129505
C           30.50561540250309       -7.13457781518790        0.52591200092268
O           30.28194445898993       -7.96926397696925        1.59419534899476
C           30.52469793383423       -5.74732289484356        0.65720504684586
C           29.53729163887431       -2.76445782321929       -0.16939870854285
C           28.25578916164332       -3.42919450342697       -0.12095032577308
C           27.30598189041814       -2.46544353353567       -0.02394664827437
N           29.37139447294487       -1.41934662042787       -0.09590912074565
C           27.99683360735467       -1.20451492992685       -0.02222885037122
C           27.38060950977168        0.04383587622314       -0.00693571251483
C           28.15529971733003        1.25177289188801       -0.02877746075365
C           27.56288673326629        2.51851607551852       -0.19713720079138
C           28.55531611695347        3.45908060533591       -0.11698326534967
C           29.77276889521922        2.78036737874106        0.09980034399625
N           29.53631784192719        1.40515830776640        0.11987294211336
C           31.00479809667983        3.46189002763738        0.28604389264916
C           31.04330092773239        4.96651615629897        0.43347275238351
C           30.92315252795747        5.56360273980847        1.69182779279118
C           30.95341984387363        6.95787245223588        1.83936701926866
O           30.81379165141442        7.45748426613875        3.10100645922567
C           31.11613256918671        7.77753040765411        0.70493962435951
O           31.12884688671813        9.13713254837759        0.90480048705005
C           31.25646568720370        7.17696643369881       -0.55855461038423
O           31.41287330034198        8.01141564879128       -1.63989964104241
C           31.22941647133213        5.78711484158409       -0.68414833464337
C           32.20527184079893        2.79064848812514        0.33558797142387
C           33.50958779270923        3.38569844422900        0.51432158090866
C           34.41081039447164        2.37548323738561        0.44989516095729
C           33.66869348867910        1.15761512032232        0.23590448095978
N           32.33978404411950        1.40617377242064        0.17919090186509
H           35.34301243908849       -0.14635249256160        0.11892500969486
H           35.29946656969169       -2.73220085561366       -0.21698780517336
H           33.43267849612846       -4.54475266291408       -0.43672053335180
H           31.15705268055684       -4.88342525113305       -2.56208601946271
H           31.14788121091184       -8.36491466650884       -3.19736166617677
H           30.55923567697949       -9.62045086191996       -0.14245522082213
H           30.13852396858477       -7.53405990235533        2.44396884169326
H           30.36639621140330       -5.30203440087588        1.63352533574460
H           28.06791907320503       -4.48963194852549       -0.14857166161863
H           26.23657516446235       -2.63110549532193        0.03169560235887
H           26.51152549573489        2.68899691760604       -0.36400346529076
H           28.45288812474852        4.52887970165009       -0.20601695065718
H           30.80014189604453        4.93652903705107        2.56920347880980
H           30.83755077734147        8.41960978010633        3.19116596767043
H           31.24074820768872        9.66937532204308        0.10561095746037
H           31.50015726792027        7.57859281790831       -2.49815602319334