248
 energy: -424.130796754235 gnorm: 18.975853240404 xtb: 6.5.1 (b24c23e)
C           22.71616900000000       -0.01606800000000       -0.01506000000000
C           23.44412400000000        1.35954000000000        0.08091600000000
C           22.83637000000000        2.59406500000000        0.06246600000000
C           23.85872900000000        3.56309700000000        0.23470500000000
C           25.05594000000000        2.88542000000000        0.36065100000000
N           24.79666600000000        1.54610100000000        0.21128900000000
C           26.47749700000000        3.52203400000000        0.65262700000000
C           26.51427000000000        4.93655000000000        1.08516800000000
C           26.80164500000000        5.94832500000000        0.17051400000000
C           26.81318900000000        7.25580900000000        0.62423200000000
N           26.55913600000000        7.62031000000000        1.90311700000000
C           26.28493200000000        6.61179900000000        2.76413300000000
C           26.24951700000000        5.27402600000000        2.41085800000000
C           27.60870600000000        2.77355400000000        0.55361300000000
C           28.91304700000000        3.31068500000000        0.88432000000000
C           29.81591200000000        2.35128800000000        0.71847800000000
N           27.80556200000000        1.47001900000000        0.18241700000000
C           29.13723700000000        1.15472000000000        0.26157800000000
C           29.80516000000000       -0.00010000000000       -0.00113400000000
C           29.02569500000000       -1.27861800000000       -0.52525900000000
C           29.56024700000000       -2.31164800000000       -1.26992500000000
C           28.53478000000000       -3.26913400000000       -1.47047000000000
C           27.40057500000000       -2.78890500000000       -0.85115700000000
N           27.69434700000000       -1.55234500000000       -0.32692600000000
C           25.99467100000000       -3.51772600000000       -0.77380400000000
C           25.97016000000000       -4.98837100000000       -0.91810400000000
C           26.36677900000000       -5.80345000000000        0.13968500000000
C           26.34149000000000       -7.17496000000000       -0.04623100000000
N           25.95717000000000       -7.78168400000000       -1.19418900000000
C           25.57923500000000       -6.95970900000000       -2.20111600000000
C           25.57022100000000       -5.57827800000000       -2.11628600000000
C           24.86826200000000       -2.79025100000000       -0.55849100000000
C           23.54904900000000       -3.38998500000000       -0.45952500000000
C           22.66262100000000       -2.41869300000000       -0.26197100000000
C           23.38138800000000       -1.16925600000000       -0.21416700000000
N           24.70146100000000       -1.44454200000000       -0.38836900000000
H           21.63946000000000       -0.03013600000000        0.10490100000000
H           21.77811900000000        2.77593900000000       -0.04535600000000
H           23.72987000000000        4.63374000000000        0.28677800000000
H           25.49692000000000        0.80850600000000        0.20251800000000
H           27.01387400000000        5.70529600000000       -0.86506600000000
H           27.03565400000000        8.07188300000000       -0.05536700000000
H           26.08602200000000        6.91573300000000        3.78660900000000
H           26.02501800000000        4.50133600000000        3.13821500000000
H           29.12664700000000        4.30931300000000        1.22136700000000
H           30.86953000000000        2.46674100000000        0.89616400000000
H           30.57879000000000       -2.37861900000000       -1.62110700000000
H           28.61732200000000       -4.20530100000000       -2.00185600000000
H           27.01463700000000       -0.92109500000000        0.08927500000000
H           26.68404700000000       -5.36557800000000        1.07994700000000
H           26.64171100000000       -7.84353900000000        0.75396200000000
H           25.27134500000000       -7.45671800000000       -3.11514900000000
H           25.25759300000000       -4.96098500000000       -2.95174300000000
H           23.32027100000000       -4.43811300000000       -0.52902600000000
H           21.60056000000000       -2.53753800000000       -0.14602300000000
C           97.18404000000000        0.02047200000000       -0.00620000000000
C           96.45608399999999       -1.24633100000000       -0.55091900000000
C           97.06383899999999       -2.33531100000000       -1.13274000000000
C           96.04148000000001       -3.27561800000000       -1.42345000000000
C           94.84426900000000       -2.73088100000000       -1.00111100000000
N           95.10354300000000       -1.47188600000000       -0.52047000000000
C           93.42271200000000       -3.43052400000000       -1.03313200000000
C           93.38593899999999       -4.88606400000000       -1.29648200000000
C           93.09856399999998       -5.36656300000000       -2.57296200000000
C           93.08702000000000       -6.73665600000000       -2.76846500000000
N           93.34107299999999       -7.64641500000000       -1.79854500000000
C           93.61527700000001       -7.14425100000000       -0.57124200000000
C           93.65069200000001       -5.79323700000000       -0.27257700000000
C           92.29150300000001       -2.71981500000000       -0.77834200000000
C           90.98716200000000       -3.34876300000000       -0.73036900000000
C           90.08429699999999       -2.41995200000000       -0.43838500000000
N           92.09464699999999       -1.39102900000000       -0.51128900000000
C           90.76297200000000       -1.14700000000000       -0.29651100000000
C           90.09504900000000       -0.00010000000000       -0.00113400000000
C           90.87451399999999        1.37649000000000        0.11851400000000
C           90.33996199999999        2.63586200000000       -0.07032300000000
C           91.36542799999998        3.57886900000000        0.18993800000000
C           92.49963400000000        2.86832000000000        0.52052800000000
N           92.20586200000000        1.52898100000000        0.42019100000000
C           93.90553800000001        3.48077700000000        0.92309500000000
C           93.93004899999998        4.85419600000000        1.46838400000000
C           93.53343000000000        5.09428700000000        2.78201500000000
C           93.55871800000000        6.39864000000000        3.24490500000000
N           93.94303799999999        7.46375800000000        2.50231200000000
C           94.32097399999999        7.19424200000000        1.23073600000000
C           94.32998799999999        5.92736800000000        0.67344200000000
C           95.03194699999999        2.73547500000000        0.78131000000000
C           96.35115999999999        3.22328100000000        1.14396700000000
C           97.23758800000000        2.26937100000000        0.87472500000000
C           96.51882100000000        1.13679000000000        0.34497100000000
N           95.19874799999999        1.46129100000000        0.31619700000000
H           98.26074900000000       -0.02196500000000        0.10688300000000
H           98.12209000000000       -2.44760400000000       -1.31188700000000
H           96.17033899999998       -4.25121400000000       -1.86752100000000
H           94.40328900000000       -0.81218400000000       -0.19044400000000
H           92.88633500000000       -4.67622100000000       -3.38223000000000
H           92.86455499999998       -7.15084400000000       -3.74636000000000
H           93.81418699999999       -7.88273300000000        0.19848500000000
H           93.87519100000000       -5.43948900000000        0.72790300000000
H           90.77356100000000       -4.39086200000000       -0.88813000000000
H           89.03067900000001       -2.60396400000000       -0.33330900000000
H           89.32141900000001        2.85623900000000       -0.35183200000000
H           91.28288700000000        4.65445200000000        0.14633300000000
H           92.88557200000000        0.77720900000000        0.50105600000000
H           93.21616200000000        4.27439500000000        3.41731200000000
H           93.25849799999999        6.62647900000000        4.26245000000000
H           94.62886399999999        8.05469100000000        0.64584000000000
H           94.64261600000000        5.76127000000000       -0.35196000000000
H           96.57993800000000        4.18684500000000        1.56223300000000
H           98.29964900000000        2.32191200000000        1.03222900000000
C           32.82013800000000       -0.00440800000000        0.00444700000000
C           34.18512600000000       -0.01808400000000       -0.00936800000000
C           35.94910100000000       -0.00589800000000       -0.01621100000000
C           36.60661899999999       -0.00923100000000       -0.02635300000000
C           38.18625200000000        0.00525500000000       -0.03453500000000
C           39.29656599999999        0.00519400000000       -0.02524800000000
C           40.87978500000000        0.02920500000000       -0.00070800000000
C           42.02386500000000        0.03268800000000        0.01289200000000
C           43.36610799999999        0.01753700000000        0.01599400000000
C           44.48681500000000       -0.00440800000000        0.00444700000000
C           54.05746500000000       -0.00440800000000        0.00444700000000
C           55.42245200000000       -0.01808400000000       -0.00936800000000
C           57.18642800000000       -0.00589800000000       -0.01621100000000
C           57.84394500000000       -0.00923100000000       -0.02635300000000
C           59.42357899999999        0.00525500000000       -0.03453500000000
C           60.53389300000000        0.00519400000000       -0.02524800000000
C           62.11711200000000        0.02920500000000       -0.00070800000000
C           63.26119200000000        0.03268800000000        0.01289200000000
C           64.60343500000000        0.01753700000000        0.01599400000000
C           65.72414200000000       -0.00440800000000        0.00444700000000
C           75.29479100000000       -0.00440800000000        0.00444700000000
C           76.65977899999999       -0.01808400000000       -0.00936800000000
C           78.42375400000000       -0.00589800000000       -0.01621100000000
C           79.08127200000000       -0.00923100000000       -0.02635300000000
C           80.66090500000000        0.00525500000000       -0.03453500000000
C           81.77121900000000        0.00519400000000       -0.02524800000000
C           83.35443800000000        0.02920500000000       -0.00070800000000
C           84.49851800000000        0.03268800000000        0.01289200000000
C           85.84076100000000        0.01753700000000        0.01599400000000
C           86.96146799999998       -0.00440800000000        0.00444700000000
C           45.75167600000000        0.00132600000000       -0.00008000000000
C           46.54745699999999       -1.24417200000000        0.57103100000000
C           46.04706300000000       -2.23953100000000        1.38355000000000
C           47.08526400000000       -3.18537400000000        1.58429500000000
C           48.18874800000000       -2.73467100000000        0.89071700000000
N           47.87352200000000       -1.51710600000000        0.34340500000000
C           49.57731900000000       -3.48017300000000        0.74473100000000
C           49.56996300000000       -4.95684800000000        0.82283200000000
C           49.98761500000000       -5.60773600000000        1.98297800000000
C           49.94632100000000       -6.99113500000000        2.00890800000000
N           49.52180799999999       -7.75941800000000        0.97830800000000
C           49.12242600000000       -7.09450400000000       -0.13161300000000
C           49.12575100000000       -5.71568800000000       -0.25751100000000
C           50.71290400000000       -2.77087800000000        0.51550300000000
C           51.99992000000000       -3.40696400000000        0.32160600000000
C           52.90850399999999       -2.45912800000000        0.11762000000000
N           50.92112100000000       -1.42477400000000        0.40382400000000
C           52.24627100000000       -1.17176600000000        0.17048600000000
C           52.90998400000000        0.00132600000000       -0.00008000000000
C           52.11286400000000        1.36780500000000        0.06893100000000
C           52.60586499999999        2.59117600000000        0.47252400000000
C           51.56802700000000        3.54320100000000        0.30295200000000
C           50.47195500000000        2.86889300000000       -0.19186200000000
N           50.79036000000000        1.53585400000000       -0.25850800000000
C           49.08677200000000        3.50587400000000       -0.61195700000000
C           49.09853300000000        4.89942800000000       -1.10524700000000
C           48.70259900000000        5.94867100000000       -0.27803900000000
C           48.74554800000000        7.23515300000000       -0.78650000000000
N           49.15151800000000        7.54520200000000       -2.03960500000000
C           49.53040200000000        6.50206300000000       -2.81496300000000
C           49.52433600000000        5.18119800000000       -2.40130700000000
C           47.95009300000000        2.76430700000000       -0.55651600000000
C           46.66392800000000        3.28286100000000       -0.97462000000000
C           45.75466200000000        2.32856400000000       -0.80842800000000
C           46.41578800000000        1.15361400000000       -0.27770200000000
N           47.74038900000000        1.47529800000000       -0.15359200000000
H           45.04365700000000       -2.29179100000000        1.77336800000000
H           47.02796400000000       -4.09891200000000        2.15374900000000
H           48.53241400000000       -0.89221000000000       -0.11402800000000
H           50.33738300000000       -5.03517700000000        2.83564900000000
H           50.26386700000000       -7.53410400000000        2.89232900000000
H           48.78515300000000       -7.72079000000000       -0.95141800000000
H           48.79472600000000       -5.23057800000000       -1.16894300000000
H           52.19710800000000       -4.46421300000000        0.32896600000000
H           53.95351000000000       -2.63739600000000       -0.05874400000000
H           53.60555100000000        2.78321200000000        0.83016600000000
H           51.62078200000000        4.60278900000000        0.50246500000000
H           50.13634600000000        0.78676600000000       -0.46569500000000
H           48.36779500000000        5.75018700000000        0.73422400000000
H           48.44346200000000        8.07889400000000       -0.17503500000000
H           49.85246900000000        6.76241800000000       -3.81742600000000
H           49.83853900000000        4.38014900000000       -3.06146300000000
H           46.46768600000000        4.26668700000000       -1.36231700000000
H           44.70957600000000        2.42932200000000       -1.03768800000000
C           66.98900300000000        0.00132600000000       -0.00008000000000
C           67.78478299999999       -1.24417200000000        0.57103100000000
C           67.28438900000000       -2.23953100000000        1.38355000000000
C           68.32258999999999       -3.18537400000000        1.58429500000000
C           69.42607400000000       -2.73467100000000        0.89071700000000
N           69.11084800000000       -1.51710600000000        0.34340500000000
C           70.81464499999998       -3.48017300000000        0.74473100000000
C           70.80728900000000       -4.95684800000000        0.82283200000000
C           71.22494100000000       -5.60773600000000        1.98297800000000
C           71.18364699999999       -6.99113500000000        2.00890800000000
N           70.75913399999999       -7.75941800000000        0.97830800000000
C           70.35975200000000       -7.09450400000000       -0.13161300000000
C           70.36307800000000       -5.71568800000000       -0.25751100000000
C           71.95023100000000       -2.77087800000000        0.51550300000000
C           73.23724700000000       -3.40696400000000        0.32160600000000
C           74.14582999999999       -2.45912800000000        0.11762000000000
N           72.15844700000000       -1.42477400000000        0.40382400000000
C           73.48359800000000       -1.17176600000000        0.17048600000000
C           74.14731000000000        0.00132600000000       -0.00008000000000
C           73.35019000000000        1.36780500000000        0.06893100000000
C           73.84319099999999        2.59117600000000        0.47252400000000
C           72.80535399999999        3.54320100000000        0.30295200000000
C           71.70928100000000        2.86889300000000       -0.19186200000000
N           72.02768700000000        1.53585400000000       -0.25850800000000
C           70.32409799999999        3.50587400000000       -0.61195700000000
C           70.33585900000000        4.89942800000000       -1.10524700000000
C           69.93992600000000        5.94867100000000       -0.27803900000000
C           69.98287400000000        7.23515300000000       -0.78650000000000
N           70.38884499999999        7.54520200000000       -2.03960500000000
C           70.76772800000001        6.50206300000000       -2.81496300000000
C           70.76166300000000        5.18119800000000       -2.40130700000000
C           69.18741999999999        2.76430700000000       -0.55651600000000
C           67.90125399999999        3.28286100000000       -0.97462000000000
C           66.99198800000001        2.32856400000000       -0.80842800000000
C           67.65311500000000        1.15361400000000       -0.27770200000000
N           68.97771500000000        1.47529800000000       -0.15359200000000
H           66.28098300000001       -2.29179100000000        1.77336800000000
H           68.26528999999999       -4.09891200000000        2.15374900000000
H           69.76974100000000       -0.89221000000000       -0.11402800000000
H           71.57470900000000       -5.03517700000000        2.83564900000000
H           71.50119300000000       -7.53410400000000        2.89232900000000
H           70.02248000000000       -7.72079000000000       -0.95141800000000
H           70.03205300000000       -5.23057800000000       -1.16894300000000
H           73.43443400000000       -4.46421300000000        0.32896600000000
H           75.19083600000000       -2.63739600000000       -0.05874400000000
H           74.84287800000000        2.78321200000000        0.83016600000000
H           72.85810900000000        4.60278900000000        0.50246500000000
H           71.37367200000000        0.78676600000000       -0.46569500000000
H           69.60512100000000        5.75018700000000        0.73422400000000
H           69.68078800000001        8.07889400000000       -0.17503500000000
H           71.08979500000000        6.76241800000000       -3.81742600000000
H           71.07586499999999        4.38014900000000       -3.06146300000000
H           67.70501299999999        4.26668700000000       -1.36231700000000
H           65.94690300000001        2.42932200000000       -1.03768800000000
248
 energy: -430.898273881885 gnorm: 2.177777978998 xtb: 6.5.1 (b24c23e)
C           22.71739864248089       -0.01349590456930       -0.01485608326897
C           23.44337406341224        1.35745329984675        0.08073748776901
C           22.83664046701612        2.59490231673741        0.06262688862380
C           23.85800242746789        3.56293169158589        0.23472443465607
C           25.05797903325957        2.88606030687104        0.36097148066097
N           24.79668192714561        1.54607410330555        0.21134659606005
C           26.47498721584895        3.52089098765714        0.65212835545247
C           26.51413474736690        4.93626150962805        1.08499137291441
C           26.80163586714869        5.94834269354569        0.17069821951277
C           26.81311968002234        7.25610804025128        0.62469669633312
N           26.55911983812896        7.61940819034706        1.90284888212390
C           26.28503168579981        6.61230500974735        2.76390996067787
C           26.24952852832813        5.27413709334623        2.41071650455439
C           27.60954458951150        2.77309808698876        0.55362540585832
C           28.91303706852912        3.31121558382094        0.88447171955314
C           29.81645371149378        2.35125990573214        0.71853531024110
N           27.80485405749493        1.46974217470353        0.18230671255473
C           29.13756766737458        1.15493374248647        0.26164005172476
C           29.80346248732982       -0.00214036233865       -0.00198734776309
C           29.02679059100878       -1.27653158479714       -0.52459367862311
C           29.56005772391310       -2.31237699297536       -1.27009901169620
C           28.53553318655482       -3.26894854305892       -1.47046842240323
C           27.39859667620595       -2.78959806672844       -0.85091582968922
N           27.69428958838310       -1.55240914549310       -0.32680910564731
C           25.99704471359675       -3.51647751478548       -0.77387881210344
C           25.97030535310763       -4.98802918573031       -0.91819816832790
C           26.36676368642474       -5.80351309437628        0.13951839711658
C           26.34135611743545       -7.17533644281738       -0.04661272728147
N           25.95717930695630       -7.78075343165036       -1.19408842143512
C           25.57934257874997       -6.96015341002156       -2.20081544679618
C           25.57022944323576       -5.57836946084937       -2.11612725116395
C           24.86751109768589       -2.78986046940052       -0.55828362657295
C           23.54897797592946       -3.39054300521400       -0.45958741270298
C           22.66215151597151       -2.41889809914547       -0.26193841502069
C           23.38169272373150       -1.17000387647483       -0.21421911812652
N           24.70207020368520       -1.44413903733266       -0.38837617474290
H           21.63959289996753       -0.02996573214384        0.10484523662764
H           21.77816987632766        2.77597438297218       -0.04535376274960
H           23.72985705943358        4.63369899031917        0.28677002530346
H           25.49685457276800        0.80857557123427        0.20252573830073
H           27.01385867462287        5.70533959797612       -0.86501968344332
H           27.03565338346450        8.07190065180755       -0.05538001623277
H           26.08601836584861        6.91574001995222        3.78662762316740
H           26.02502241629886        4.50139549260150        3.13819972048206
H           29.12654948631914        4.30945953618842        1.22139208082332
H           30.86969505663270        2.46657227729170        0.89612974200821
H           30.57875139313725       -2.37862718981457       -1.62107979010336
H           28.61734165334659       -4.20525908018139       -2.00183467578737
H           27.01472257826313       -0.92117472516276        0.08924407224540
H           26.68403900749424       -5.36562480017422        1.07991099680059
H           26.64171520555782       -7.84355287431180        0.75397634192426
H           25.27134410887988       -7.45672992196406       -3.11516943527087
H           25.25761407892663       -4.96104315836435       -2.95171909620866
H           23.32035780904816       -4.43827087985120       -0.52906243054847
H           21.60042570668415       -2.53748291433894       -0.14600657990926
C           97.18281129373773        0.01809780719431       -0.00719444468975
C           96.45683187066383       -1.24440078762162       -0.55012495900728
C           97.06356925721849       -2.33612464977677       -1.13297912738032
C           96.04220205843066       -3.27548094632404       -1.42335679113259
C           94.84223482019540       -2.73159844224136       -1.00112078088709
N           95.10352862264092       -1.47188747010295       -0.52040556985434
C           93.42521994056990       -3.42928167593962       -1.03305285554489
C           93.38607462586326       -4.88572570639810       -1.29650607737317
C           93.09857305148869       -5.36666288569206       -2.57280644204023
C           93.08708946713185       -6.73713454916618       -2.76818869073654
N           93.34108903386526       -7.64549057558946       -1.79837034205766
C           93.61517728613919       -7.14459858083288       -0.57167201226216
C           93.65068050363256       -5.79327100208191       -0.27275350552652
C           92.29066422408060       -2.71941920897973       -0.77812472271647
C           90.98717471260566       -3.34930700289630       -0.73047755834579
C           90.08375593391270       -2.41994457374598       -0.43832005637929
N           92.09535421795393       -1.39073898129698       -0.51126154101049
C           90.76268709373113       -1.14722675306249       -0.29655525261810
C           90.09678228358354        0.00212056509787       -0.00095558945666
C           90.87344580508328        1.37431547335649        0.11814864813960
C           90.34015199497931        2.63658588882320       -0.07014333886674
C           91.36467619597218        3.57870536464561        0.18985440848035
C           92.50161118424914        2.86882195583746        0.52106030460354
N           92.20592491518224        1.52899755304443        0.42032343782061
C           93.90316540289726        3.47970325432676        0.92245857830185
C           93.92990423989198        4.85393465573030        1.46814331731690
C           93.53344520761075        5.09441953885202        2.78189588786428
C           93.55885188922339        6.39914931819351        3.24473799298623
N           93.94302866299005        7.46288484682021        2.50197527997019
C           94.32086637327504        7.19449934050103        1.23120658521416
C           94.32997960609734        5.92737681988292        0.67362508431927
C           95.03269832714766        2.73503431186400        0.78131574613707
C           96.35123032647209        3.22380543676876        1.14416689670912
C           97.23805748769746        2.26953765938101        0.87484771821960
C           96.51852098512637        1.13747686910814        0.34526696248578
N           95.19813662745514        1.46093651377490        0.31600536123086
H           98.26061609195703       -0.02209084956192        0.10675565000359
H           98.12203908503561       -2.44763649109421       -1.31190115681521
H           96.17035190910315       -4.25117399395340       -1.86750926551470
H           94.40335410130541       -0.81224920652850       -0.19046890757884
H           92.88635036390436       -4.67628095712424       -3.38220883486530
H           92.86455562226185       -7.15085367832847       -3.74637965861872
H           93.81419064303888       -7.88274771664700        0.19849829985523
H           93.87518658471977       -5.43953491104444        0.72786212775107
H           90.77365902143161       -4.39100445873265       -0.88817495655318
H           89.03051478855375       -2.60380119432905       -0.33326227326521
H           89.32145805367689        2.85623527917894       -0.35180476321749
H           91.28286747606758        4.65440546296731        0.14633283254391
H           92.88548511598937        0.77729476581443        0.50106536169509
H           93.21617002758926        4.27445306071003        3.41730144954440
H           93.25849380304624        6.62648477288635        4.26246913603133
H           94.62886489326917        8.05471096852248        0.64582731392381
H           94.64259492465078        5.76131074659907       -0.35191210069776
H           96.57985118786323        4.18700201989453        1.56227292464517
H           98.29978329397647        2.32185548859191        1.03221834986806
C           32.82624742020834       -0.00445795481725        0.00437488203631
C           34.17929684065857       -0.01800971551880       -0.00930315013152
C           35.75893809663450       -0.00502908046939       -0.01335188743096
C           36.79376806599100       -0.01010709803249       -0.02920235436613
C           38.18098143638114        0.00523465829182       -0.03460839069016
C           39.30657569264505        0.00527260349190       -0.02512833783678
C           40.87233025589392        0.02913213414762       -0.00081709301626
C           42.02722307216611        0.03270360689798        0.01294007677155
C           43.35916988621560        0.01765060102878        0.01605897157885
C           44.49003573950783       -0.00492565439075        0.00441304914630
C           54.07318783182814       -0.00400260547334        0.00426940828780
C           55.41895179686914       -0.01796893286544       -0.00934362782480
C           56.99616686827371       -0.00505914131599       -0.01335075306172
C           58.03130678006266       -0.01010412045299       -0.02920472425000
C           59.41814832348236        0.00523799419205       -0.03460539895274
C           60.54388800777208        0.00527283374909       -0.02512780225104
C           62.10964670329778        0.02913173919557       -0.00081752024270
C           63.26453686748965        0.03270242257479        0.01293795515134
C           64.59649935110342        0.01765150538335        0.01606023436973
C           65.72736217528258       -0.00492335232309        0.00441567913014
C           75.31048713520514       -0.00400194858291        0.00426744997344
C           76.65623999630269       -0.01797014789770       -0.00934286466052
C           78.23359929078863       -0.00505847911409       -0.01335184148393
C           79.26863045727313       -0.01010433711672       -0.02920456691484