270
 energy: -521.957343392788 gnorm: 0.000895904943 xtb: 6.5.1 (b24c23e)
Cu          46.23835335982649       -0.04090685511874       -0.00468975715750
C           42.83306270766385       -0.12826199485748        0.01815309180102
C           43.46652953486383       -0.16678679812613        1.25088118143579
C           42.78919469671769       -0.20557558508246        2.51543282763044
C           43.74606868898172       -0.21373999755684        3.47587457466400
C           45.01803985694424       -0.19010272991710        2.80548922035631
N           44.81702022780794       -0.15429590330239        1.45576003835571
C           46.26150084511936       -0.17257803026340        3.44137411088606
C           47.49547040018630       -0.11187422052490        2.79088033818825
C           48.77209068618487       -0.14740559497397        3.44667671306492
C           49.71943737934700       -0.09206792361503        2.47676020269773
N           47.68540636013323       -0.04689270222202        1.43600203254606
C           49.02981444803028       -0.02936779709856        1.22319382293839
C           49.66740936785809        0.02717300866240       -0.02818415156543
C           49.01059777702714        0.06782144024316       -1.27018425178013
C           49.68105606271853        0.09961416774430       -2.53516601613032
C           48.71902265252249        0.12488136563229       -3.49185353819294
C           47.45246221537529        0.11596372636278       -2.81589611204357
C           46.20825511841911        0.11697729248562       -3.44999344643765
C           46.19576680287190        0.19341530401569       -4.93117088153722
C           45.65171393022791       -0.84638126756167       -5.68979949443328
C           45.64095873776915       -0.77167374698297       -7.07042648096021
C           46.17056616281288        0.34567532275231       -7.71886074953011
C           46.13351525196064        0.38093209209379       -9.20030166521861
O           46.67488763028452        1.49092964141529       -9.72486240825799
O           45.66794043779758       -0.49021937145090       -9.89022681850378
C           46.71371201388224        1.38732056698944       -6.96608617888876
C           46.72672528276004        1.30848248555632       -5.58450606204448
C           44.97444357736526        0.05201123576916       -2.79809108632629
C           43.69191764528793        0.09375116007359       -3.44724256176018
C           42.75026582298252        0.01943423493919       -2.47467166525527
C           43.44744273281959       -0.05702778216574       -1.22277265398831
N           44.79464680638316       -0.03068040554406       -1.44740890757468
N           47.66306446856392        0.07242127113041       -1.46319397454934
C           46.27228999749409       -0.22342885556182        4.92395546056108
C           45.76094310031446       -1.33557220177693        5.59763240484313
C           45.77400398435925       -1.38117900080449        6.97956499547817
C           46.29423447661868       -0.31382077786337        7.71390390862995
C           46.28415075543906       -0.40843370379393        9.19331703584662
O           46.81187065059581        0.66340583488624        9.80350177227155
O           45.84950536781836       -1.34644066130913        9.81203721593224
C           46.80369510729188        0.80015389407141        7.04597251286428
C           46.79376839947699        0.84148350986718        5.66270346246038
H           41.74811244231802       -0.14335759652630        0.02579524799634
H           41.71765774863334       -0.21711731473007        2.63789768288041
H           43.60991215130586       -0.22292429005808        4.54528676768320
H           48.92072282484453       -0.21997603047506        4.51183789582707
H           50.79168552227731       -0.09862658440835        2.58976919500488
H           50.75146944244847        0.09623864391933       -2.66465336374623
H           48.85161732149002        0.13388061710162       -4.56155413680841
H           45.25195416775215       -1.72076311309375       -5.18888808552888
H           45.22432487191391       -1.57703627629960       -7.66536194444067
H           46.61159682310994        1.43596445422007      -10.69220379285083
H           47.12297115680060        2.25787473686301       -7.46489765800832
H           47.13713711258364        2.12372658197998       -4.99930638835891
H           43.53842373057129        0.18151402367815       -4.51070683435275
H           41.67690321794128        0.02290014688359       -2.58047979137690
H           45.36809540183962       -2.17069586115565        5.02889481328222
H           45.38374237396644       -2.24350610259393        7.50889012383273
H           46.76799069841763        0.52372746274073       10.76337415036523
H           47.20518236747876        1.63236911266453        7.61197161577863
H           47.17886738345458        1.71206378878308        5.14376838815830
Cu         102.07275836429517       -0.03188023945637       -0.04612724186155
C          105.47745286121233       -0.12479624387657       -0.07881979363757
C          104.84447239293485       -0.01801042666421       -1.30775148276631
C          105.52221299706824        0.08890441261262       -2.56816026109311
C          104.56572137578435        0.19368761157369       -3.52329399735510
C          103.29352350852301        0.14183317368007       -2.85493011301137
N          103.49405964766086        0.02068307025761       -1.51010403139036
C          102.05032527772426        0.23513160350565       -3.48471425044489
C          100.81638088069492        0.22398580892025       -2.83134048493799
C           99.53980520591118        0.26778489535361       -3.48678853022452
C           98.59242236086179        0.21566754546957       -2.51669842309551
N          100.62638224989547        0.13429353137553       -1.47799319377611
C           99.28198264970943        0.13228765582308       -1.26435409066704
C           98.64450039982979        0.04594534292771       -0.01469265646486
C           99.30079790624639       -0.06115379665931        1.22361430891877
C           98.62959407948300       -0.17466987128696        2.48354932399229
C           99.59111523699626       -0.26603065712773        3.43668694617835
C          100.85801187539110       -0.20111491979953        2.76449749151408
C          102.10187343348269       -0.27881894571425        3.39427034820710
C          102.11431136552598       -0.37632644375321        4.87427487157432
C          102.65377253326248       -1.49999190264010        5.50593179226486
C          102.66619901697165       -1.58643951722755        6.88587234594955
C          102.14288505182168       -0.54949581670222        7.66065325087912
C          102.18331621126731       -0.68605809599401        9.13620050984766
O          101.64901694577532        0.35848323171234        9.78699159124420
O          102.64663965661946       -1.63313104225416        9.71931942211301
C          101.60342925023913        0.57485821915015        7.03497091888580
C          101.58863323408977        0.65729200396909        5.65360770007720
C          103.33565426972304       -0.27049021485620        2.73916020379133
C          104.61806063155875       -0.30901969372838        3.38869551186897
C          105.55982332699223       -0.27098331973805        2.41414425015041
C          104.86283873855041       -0.19790880892553        1.16192005711157
N          103.51568942206633       -0.19445341465212        1.38808048263343
N          100.64809344397585       -0.08504215452241        1.41590722041915
C          102.03951335521992        0.35527366609286       -4.96324967722432
C          102.54907054977801       -0.67263004058934       -5.76077616165958
C          102.53565143629768       -0.55884102600029       -7.13875428339938
C          102.01719487393071        0.58699910290675       -7.74510776709034
C          102.02922467442100        0.66498180768606       -9.22538478384214
O          101.50207368607228        1.80021952689450       -9.70781157795555
O          102.46207088314850       -0.19649112946206       -9.94825108127118
C          101.50925626363198        1.61725349416711       -6.95311430539574
C          101.51941096800051        1.49890547678839       -5.57431301884944
H          106.56237326982858       -0.14130881362995       -0.08796959899793
H          106.59377883845411        0.08976769280870       -2.69093116109978
H          104.70232497271250        0.30826680852402       -4.58653717370688
H           99.39118371573373        0.31719989103615       -4.55327364558859
H           97.52016898705803        0.22596545762249       -2.62949034493666
H           97.55909607574669       -0.18806962956817        2.61158993067190
H           99.45789837952951       -0.38200130840237        4.50004739133489
H          103.04897495873503       -2.31195995685360        4.90609911928636
H          103.07956901908145       -2.45744210318221        7.38248355725607
H          101.71439852506684        0.19224643281572       10.74139307022090
H          101.19867317148099        1.38326049187369        7.63231601748778
H          101.18128927404278        1.53684213215288        5.16783276193925
H          104.77124420521501       -0.34742842455666        4.45512573934382
H          106.63314478742201       -0.28303610418721        2.51966148361960
H          102.94087845182138       -1.56819814999199       -5.29208773660264
H          102.92498510614300       -1.35480343230715       -7.76399704507433
H          101.54686140288180        1.77241559723148      -10.67733634766187
H          101.10891212854314        2.50971447161833       -7.41934428557708
H          101.13559943413745        2.30449808796386       -4.95852104430146
C           51.07396663711143        0.03303303991515       -0.03793492087898
C           52.29805437130777        0.03431493116529       -0.04234911254016
C           53.64161269684320        0.03307870601169       -0.04735431441889
C           54.87186152698179        0.02857454475480       -0.04932014584864
C           56.21050963585166        0.02221684724758       -0.04951897840585
C           57.44083082796341        0.01525467262647       -0.04830812587337
C           58.78410768957558        0.00942284676298       -0.04685485466829
C           60.00844551761365        0.00600001475869       -0.04394519303227
C           69.69038418269812        0.03400193600484       -0.01301839049734
C           70.91514234249421        0.03420843537940       -0.01227247331342
C           72.25740860934741        0.03295351247151       -0.01002145171846
C           73.48825125372416        0.03047035396342       -0.00747052805821
C           74.82576792121472        0.02693800328115       -0.00589176949670
C           76.05660694992426        0.02277797324722       -0.00536642080949
C           77.39886583092904        0.02006350379111       -0.00619998979955
C           78.62361809223411        0.01758361964709       -0.00815630607740
C           88.30432553830087        0.03568375941167        0.00188721302156
C           89.52860807580637        0.04407156339279        0.00519999650689
C           90.87171507997630        0.04828893281445        0.00862735577784
C           92.10201062809568        0.05477328747725        0.00834877514718
C           93.44049582387287        0.05761143275257        0.00870987555388
C           94.67071259519834        0.06255246536268        0.00640777655139
C           96.01409975156824        0.06070044751696        0.00129655683881
C           97.23814476150820        0.05610673634832       -0.00361918775521
Cu          64.84996786105823        0.01949584313733       -0.02635691568592
C           61.41416755961204        0.00846265505515       -0.03969624098163
C           62.06613810765850       -1.23712235883510       -0.01190099273855
C           61.39259236213287       -2.50061848891353       -0.03511749721361
C           62.35139193744264       -3.46006047452674        0.01244157787478
C           63.61745143333684       -2.78646113102431        0.07434586541629
N           63.41121274530678       -1.43313765621707        0.04921346165254
C           64.86012995887488       -3.42155827172130        0.12941781833676
C           66.09887092958049       -2.77679989024877        0.12610337146485
C           67.36889947810781       -3.43435744913257        0.24789678217980
C           68.32192389925632       -2.46876453522675        0.20721032716434
N           66.29716476345149       -1.42542357191049        0.02779815331452
C           67.64072767617084       -1.21676516860029        0.06970556498830
C           68.28579262901258        0.03046602390235       -0.01605596211400
C           67.63357822713347        1.27373568255333       -0.10423079070809
C           68.30781684343738        2.53029190136984       -0.23433058241317
C           67.34905612225990        3.49001098914283       -0.27924067931079
C           66.08238531802087        2.82417072408985       -0.16807634098815
C           64.83956291084075        3.46075425141808       -0.18030719889071
C           64.83339513108967        4.94260417109589       -0.24580704489591
C           65.40866753980869        5.69879965265423        0.77874401386575
C           65.39527713317052        7.08012842596896        0.71848501142052
C           64.81150667368395        7.73137891929872       -0.36984591288070
C           64.82185162884925        9.21361541168240       -0.38923225033989
O           64.23126005795659        9.74073314791249       -1.47259589418864
O           65.30666969251105        9.90199661848613        0.47254900079439
C           64.23964703079430        6.98085346863012       -1.39765090078897
C           64.24944769214648        5.59854929566903       -1.33246583049324
C           63.60062782856552        2.81752092637670       -0.13549625826634
C           62.32991187384803        3.48291220947853       -0.08239080637820
C           61.37694053488076        2.51728208671609       -0.04320194220959
C           62.05871903226612        1.25817891376258       -0.06255214566585
N           63.40284066581314        1.46288511364799       -0.11363559080891
N           66.28845625712974        1.47380348601697       -0.07124791039679
C           64.86431462731883       -4.90338083558119        0.19624233501393
C           64.27811856258974       -5.56420917815067        1.27893717382449
C           64.28383739690983       -6.94555205016960        1.33968753180104
C           64.87103047252714       -7.69239226160746        0.31657866614391
C           64.84809404421327       -9.17079518204000        0.42447056548557
O           65.44129845573602       -9.79359154084990       -0.60518574760242
O           64.34986451569864       -9.77852181071349        1.33768542644078
C           65.45607164205656       -7.03744274149020       -0.76757689001673
C           65.45391782777354       -5.65464771707941       -0.82351989401564
H           60.32323014334251       -2.62731313731489       -0.08948214165632
H           62.21729489716998       -4.52943011873857       -0.00642141357747
H           67.50958261361872       -4.49667815823334        0.36454322817539
H           69.39202189076396       -2.58369879434602        0.27208956784041
H           69.37762645278451        2.65207710913096       -0.29104689987377
H           67.48373161827611        4.55356907898678       -0.39162184275742
H           65.85129568830907        5.19521732933248        1.63063105199620
H           65.83424523464878        7.67330011223424        1.51319332916046
H           64.27976949860739       10.70838084816955       -1.40861105664906
H           63.78913748210834        7.48200554350156       -2.24620509389960
H           63.81491717345936        5.01499266814847       -2.13628901925173
H           62.18863575178088        4.55135283767212       -0.06274034717320
H           60.30646244058941        2.63741023903359        0.00335556009972
H           63.83198975200606       -4.98571757544667        2.07990516056907
H           63.83535740984546       -7.46469421099026        2.17960643850725
H           65.38354001920354      -10.75183436083345       -0.45944127327882
H           65.91010389132120       -7.61313610500603       -1.56544188681941
H           65.89796397477731       -5.14602608016326       -1.67181716124597
Cu          83.46371679553799        0.02563408190129       -0.00882861250114
C           80.02819455090490        0.01930265042504       -0.00918513202069
C           80.67897702117028       -1.22761151963903        0.01446859020010
C           80.00356807602753       -2.49004719481726       -0.00928443262410
C           80.96117086089278       -3.45099231519351        0.03354666511376
C           82.22826332966419       -2.77929123865088        0.09332236775360
N           82.02361427926076       -1.42540847229906        0.07094723198908
C           83.47003851781054       -3.41582880334425        0.14619524145624
C           84.70952860091694       -2.77215024117636        0.14373261881447
C           85.97877386374303       -3.43098879236839        0.26710623166018
C           86.93283077972096       -2.46643128763551        0.22666271787655
N           84.90901468913530       -1.42128743606193        0.04456682007303
C           86.25301290619178       -1.21383323676106        0.08718983892481
C           86.89878758377712        0.03207510953062       -0.00266207432660
C           86.24854938643760        1.27538622052240       -0.09710271999168
C           86.92419528891627        2.53022963092558       -0.23640026093715
C           85.96670187749775        3.49096915950517       -0.28409142895722
C           84.69940614595826        2.82767393456008       -0.16431861160062
C           83.45754837526169        3.46677873628963       -0.17278550283059
C           83.45624543403478        4.94837068027073       -0.24302577993461
C           84.04341880707486        5.70484863601881        0.77464819092716
C           84.04150878328973        7.08588269987709        0.70765437396048
C           83.45696355069634        7.73669494467971       -0.38051006179772
C           83.48360082737761        9.21864656935952       -0.40933956332802
O           82.89067765368046        9.74530136696263       -1.49157127012464
O           83.98335734883534        9.90682612525068        0.44399965132743
C           82.87084591280643        6.98598754356918       -1.40010967571715
C           82.86946340924696        5.60392529697921       -1.32832767415027
C           82.21798616063199        2.82586309973420       -0.12003416828122
C           80.94838741381487        3.49291708654825       -0.06294836226424
C           79.99444154356107        2.52850317822910       -0.01606925884400
C           80.67461543551242        1.26854377175008       -0.03554746591802
N           82.01841796379372        1.47127208436770       -0.09324143811840
N           84.90356709993168        1.47777627663679       -0.06131143520732
C           83.47330729656512       -4.89780611179851        0.21003687684522
C           82.88921309415089       -5.56102940241687        1.29240306112041
C           82.89534591403705       -6.94250008436718        1.35015775245025
C           83.48034707171492       -7.68704763457353        0.32408712082618
C           83.45814973968324       -9.16564410733237        0.42872236526838
O           84.04918403603820       -9.78593911115384       -0.60378944342835
O           82.96334261657931       -9.77572985118901        1.34222779988678
C           84.06276183673526       -7.02967433600993       -0.76001696747978
C           84.06062276786821       -5.64676270249876       -0.81272427793312
H           78.93389766628012       -2.61535577765790       -0.06064794720768
H           80.82559587220474       -4.52014735766719        0.01264682424713
H           86.11802293525082       -4.49344110280559        0.38439155038634
H           88.00279387750332       -2.58213065536507        0.29261537214297
H           87.99395968777338        2.65012473909403       -0.29755566571414
H           86.10267320922668        4.55356871253681       -0.40355114155285
H           84.48743084871548        5.20165402503110        1.62605112517394
H           84.49111170528593        7.67912843314367        1.49634720668077
H           82.94988753142341       10.71278305750703       -1.43469560402962
H           82.41897135888745        7.48677515556188       -2.24815031235201
H           82.42494280955114        5.02036489827642       -2.12666277240000
H           80.80855665020542        4.56160468907059       -0.04600313627396
H           78.92432791156418        2.64999487787374        0.03507437847773
H           82.44460274155772       -4.98431071074624        2.09548762715762
H           82.44882361864640       -7.46362315366872        2.18989980299135
H           83.99207041166916      -10.74451050118414       -0.46002680191994
H           84.51484038507920       -7.60360165642783       -1.56025565093482
H           84.50303629562518       -5.13612371935629       -1.66066374102862
