      -----------------------------------------------------------      
     |                   =====================                   |     
     |                           x T B                           |     
     |                   =====================                   |     
     |                         S. Grimme                         |     
     |          Mulliken Center for Theoretical Chemistry        |     
     |                    University of Bonn                     |     
      -----------------------------------------------------------      

   * xtb version 6.5.1 (b24c23e) compiled by 'conda@728c89f4b128' on 2022-07-12

   xtb is free software: you can redistribute it and/or modify it under
   the terms of the GNU Lesser General Public License as published by
   the Free Software Foundation, either version 3 of the License, or
   (at your option) any later version.
   
   xtb is distributed in the hope that it will be useful,
   but WITHOUT ANY WARRANTY; without even the implied warranty of
   MERCHANTABILITY or FITNESS FOR A PARTICULAR PURPOSE.  See the
   GNU Lesser General Public License for more details.
   
   Cite this work as:
   * C. Bannwarth, E. Caldeweyher, S. Ehlert, A. Hansen, P. Pracht,
     J. Seibert, S. Spicher, S. Grimme, WIREs Comput. Mol. Sci., 2020, 11,
     e01493. DOI: 10.1002/wcms.1493
   
   for GFN2-xTB:
   * C. Bannwarth, S. Ehlert and S. Grimme., J. Chem. Theory Comput., 2019,
     15, 1652-1671. DOI: 10.1021/acs.jctc.8b01176
   for GFN1-xTB:
   * S. Grimme, C. Bannwarth, P. Shushkov, J. Chem. Theory Comput., 2017,
     13, 1989-2009. DOI: 10.1021/acs.jctc.7b00118
   for GFN0-xTB:
   * P. Pracht, E. Caldeweyher, S. Ehlert, S. Grimme, ChemRxiv, 2019, preprint.
     DOI: 10.26434/chemrxiv.8326202.v1
   for GFN-FF:
   * S. Spicher and S. Grimme, Angew. Chem. Int. Ed., 2020, 59, 15665-15673.
     DOI: 10.1002/anie.202004239
   
   for ALPB and GBSA implicit solvation:
   * S. Ehlert, M. Stahn, S. Spicher, S. Grimme, J. Chem. Theory Comput.,
     2021, 17, 4250-4261. DOI: 10.1021/acs.jctc.1c00471
   
   for DFT-D4:
   * E. Caldeweyher, C. Bannwarth and S. Grimme, J. Chem. Phys., 2017,
     147, 034112. DOI: 10.1063/1.4993215
   * E. Caldeweyher, S. Ehlert, A. Hansen, H. Neugebauer, S. Spicher,
     C. Bannwarth and S. Grimme, J. Chem. Phys., 2019, 150, 154122.
     DOI: 10.1063/1.5090222
   * E. Caldeweyher, J.-M. Mewes, S. Ehlert and S. Grimme, Phys. Chem. Chem. Phys.
     2020, 22, 8499-8512. DOI: 10.1039/D0CP00502A
   
   for sTDA-xTB:
   * S. Grimme and C. Bannwarth, J. Chem. Phys., 2016, 145, 054103.
     DOI: 10.1063/1.4959605
   
   in the mass-spec context:
   * V. Asgeirsson, C. Bauer and S. Grimme, Chem. Sci., 2017, 8, 4879.
     DOI: 10.1039/c7sc00601b
   * J. Koopman and S. Grimme, ACS Omega 2019, 4, 12, 15120-15133.
     DOI: 10.1021/acsomega.9b02011
   
   for metadynamics refer to:
   * S. Grimme, J. Chem. Theory Comput., 2019, 155, 2847-2862
     DOI: 10.1021/acs.jctc.9b00143
   
   for SPH calculations refer to:
   * S. Spicher and S. Grimme, J. Chem. Theory Comput., 2021, 17, 1701-1714
     DOI: 10.1021/acs.jctc.0c01306
   
   with help from (in alphabetical order)
   P. Atkinson, C. Bannwarth, F. Bohle, G. Brandenburg, E. Caldeweyher
   M. Checinski, S. Dohm, S. Ehlert, S. Ehrlich, I. Gerasimov, C. Hölzer
   A. Katbashev, J. Koopman, C. Lavigne, S. Lehtola, F. März, M. Müller,
   F. Musil, H. Neugebauer, J. Pisarek, C. Plett, P. Pracht, F. Pultar,
   J. Seibert, P. Shushkov, S. Spicher, M. Stahn, M. Steiner, T. Strunk,
   J. Stückrath, T. Rose, and J. Unsleber
   
 * started run on 2022/07/30 at 09:36:54.243     

           -------------------------------------------------
          |                Calculation Setup                |
           -------------------------------------------------

          program call               : xtb Zn_Ph2Me_C4_4.xyz --gfn 1 --opt -T 48
          hostname                   : cx3-15-15.cx3.hpc.ic.ac.uk
          coordinate file            : Zn_Ph2Me_C4_4.xyz
          omp threads                :                     1

   ID    Z sym.   atoms
    1   30 Zn     1, 69, 149, 216
    2    6 C      2-6, 8-11, 13-31, 34-41, 70-74, 76-79, 81-99, 102-109,
                  137-148, 150-154, 156-159, 161-179, 182-189, 217-221,
                  223-226, 228-246, 249-256
    3    7 N      7, 12, 32, 33, 75, 80, 100, 101, 155, 160, 180, 181, 222,
                  227, 247, 248
    4    1 H      42-68, 110-136, 190-215, 257-282

molecular fragmentation (1/2 indicates fragments):
111111111111111111111111111111111111111111111111111111111111111111112222
222222222222222222222222222222222222222222222222222222222222222222222222
222222222222222222222222222222222222222222222222222222222222222222222222
222222222222222222222222222222222222222222222222222222222222222222
# atoms in fragment 1/2:    68   214
 fragment masses (1/2) :      581.01     1885.13
CMA distance (Bohr)    :  54.260
constraining FC (au)   :  0.0500
########################################################################
[WARNING] Please study the warnings concerning your input carefully
-1- prog_main_parseArguments: Unknown option '-T' provided
########################################################################

           -------------------------------------------------
          |                 G F N 1 - x T B                 |
           -------------------------------------------------

        Reference                      10.1021/acs.jctc.7b00118
      * Hamiltonian:
        H0-scaling (s, p, d)           1.850000    2.250000    2.000000
        zeta-weighting                 0.000000
      * Dispersion:
        s8                             2.400000
        a1                             0.630000
        a2                             5.000000
        s9                             0.000000
      * Repulsion:
        kExp                           1.500000
        rExp                           1.000000
      * Coulomb:
        alpha                          2.000000
        third order                    atomic
        anisotropic                    false
      * Halogen bond correction:
        rad-scale                      1.300000
        damping                        0.440000


          ...................................................
          :                      SETUP                      :
          :.................................................:
          :  # basis functions                 916          :
          :  # atomic orbitals                 916          :
          :  # shells                          564          :
          :  # electrons                       818          :
          :  # halogen bonds                     0          :
          :  max. iterations                   250          :
          :  Hamiltonian                  GFN1-xTB          :
          :  restarted?                      false          :
          :  GBSA solvation                  false          :
          :  PC potential                    false          :
          :  electronic temp.          300.0000000     K    :
          :  accuracy                    1.0000000          :
          :  -> integral cutoff          0.2500000E+02      :
          :  -> integral neglect         0.1000000E-07      :
          :  -> SCF convergence          0.1000000E-05 Eh   :
          :  -> wf. convergence          0.2000000E-04 e    :
          :  Broyden damping             0.4000000          :
          ...................................................

 iter      E             dE          RMSdq      gap      omega  full diag
   1   -446.3046142 -0.446305E+03  0.101E+01    0.25       0.0  T
   2   -445.7690698  0.535544E+00  0.613E+00    0.13       1.0  T
   3   -289.9415750  0.155827E+03  0.652E+00    0.06       1.0  T
   4    226.4048661  0.516346E+03  0.102E+01    0.02       1.0  T
   5   -287.6666101 -0.514071E+03  0.574E+00    0.01       1.0  T
   6   -443.0469299 -0.155380E+03  0.194E+00    0.13       1.0  T
   7   -441.6662643  0.138067E+01  0.159E+00    0.01       1.0  T
   8   -445.6520878 -0.398582E+01  0.111E+00    0.23       1.0  T
   9   -446.7674225 -0.111533E+01  0.672E-01    0.31       1.0  T
  10   -446.8807329 -0.113310E+00  0.421E-01    0.34       1.0  T
  11   -446.9014889 -0.207561E-01  0.325E-01    0.27       1.0  T
  12   -446.0614737  0.840015E+00  0.732E-01    0.13       1.0  T
  13   -446.9210255 -0.859552E+00  0.229E-01    0.10       1.0  T
  14   -446.9404668 -0.194413E-01  0.169E-01    0.11       1.0  T
  15   -446.9224602  0.180066E-01  0.142E-01    0.05       1.0  T
  16   -446.9458481 -0.233879E-01  0.156E-01    0.19       1.0  T
  17   -446.9502805 -0.443234E-02  0.129E-01    0.18       1.0  T
  18   -446.9503913 -0.110783E-03  0.118E-01    0.14       1.0  T
  19   -446.9513259 -0.934672E-03  0.108E-01    0.16       1.0  T
  20   -446.9524654 -0.113950E-02  0.990E-02    0.14       1.0  T
  21   -446.9538729 -0.140751E-02  0.831E-02    0.16       1.0  T
  22   -446.9561308 -0.225790E-02  0.618E-02    0.13       1.0  T
  23   -446.9575196 -0.138878E-02  0.505E-02    0.13       1.0  T
  24   -446.9579850 -0.465404E-03  0.446E-02    0.13       1.0  T
  25   -446.9588890 -0.903938E-03  0.317E-02    0.12       1.0  T
  26   -446.9589097 -0.207503E-04  0.281E-02    0.11       1.0  T
  27   -446.9590448 -0.135114E-03  0.252E-02    0.12       1.0  T
  28   -446.9590820 -0.371443E-04  0.228E-02    0.12       1.0  T
  29   -446.9592105 -0.128548E-03  0.189E-02    0.12       1.0  T
  30   -446.9592557 -0.452122E-04  0.165E-02    0.12       1.0  T
  31   -446.9593691 -0.113369E-03  0.127E-02    0.12       1.0  T
  32   -446.9594089 -0.398075E-04  0.107E-02    0.12       1.0  T
  33   -446.9595156 -0.106675E-03  0.509E-03    0.12       1.2  T
  34   -446.9595302 -0.146213E-04  0.341E-03    0.12       1.7  T
  35   -446.9595409 -0.107114E-04  0.213E-03    0.12       2.8  T
  36   -446.9595445 -0.358259E-05  0.158E-03    0.12       3.8  T
  37   -446.9595467 -0.223078E-05  0.958E-04    0.12       6.2  T
  38   -446.9595474 -0.633457E-06  0.537E-04    0.12      11.1  T
  39   -446.9595479 -0.535297E-06  0.330E-04    0.12      18.0  T
  40   -446.9595480 -0.108799E-06  0.150E-04    0.12      39.7  T
  41   -446.9595480 -0.198348E-07  0.687E-05    0.12      86.7  T

   *** convergence criteria satisfied after 41 iterations ***

         #    Occupation            Energy/Eh            Energy/eV
      -------------------------------------------------------------
         1        2.0000           -0.7632790             -20.7699
       ...           ...                  ...                  ...
       403        2.0000           -0.3828014             -10.4166
       404        2.0000           -0.3823094             -10.4032
       405        2.0000           -0.3813130             -10.3761
       406        2.0000           -0.3808155             -10.3625
       407        2.0000           -0.3790953             -10.3157
       408        2.0000           -0.3695127             -10.0550
       409        1.7435           -0.3600447              -9.7973 (HOMO)
       410        0.1343           -0.3557241              -9.6797 (LUMO)
       411        0.1222           -0.3556282              -9.6771
       412                         -0.3321586              -9.0385
       413                         -0.3256816              -8.8622
       414                         -0.3241557              -8.8207
       ...                                ...                  ...
       916                          1.2680752              34.5061
      -------------------------------------------------------------
                  HL-Gap            0.0043206 Eh            0.1176 eV
             Fermi-level           -0.3582239 Eh           -9.7478 eV

 SCC (total)                   0 d,  0 h,  0 min, 12.534 sec
 SCC setup                      ...        0 min,  0.021 sec (  0.170%)
 Dispersion                     ...        0 min,  0.013 sec (  0.104%)
 classical contributions        ...        0 min,  0.004 sec (  0.033%)
 integral evaluation            ...        0 min,  0.326 sec (  2.602%)
 iterations                     ...        0 min, 11.363 sec ( 90.659%)
 molecular gradient             ...        0 min,  0.750 sec (  5.987%)
 printout                       ...        0 min,  0.056 sec (  0.444%)

         :::::::::::::::::::::::::::::::::::::::::::::::::::::
         ::                     SUMMARY                     ::
         :::::::::::::::::::::::::::::::::::::::::::::::::::::
         :: total energy            -440.101938038414 Eh    ::
         :: gradient norm              0.764769293178 Eh/a0 ::
         :: HOMO-LUMO gap              0.117569044132 eV    ::
         ::.................................................::
         :: SCC energy              -446.959548027891 Eh    ::
         :: -> electrostatic           0.278357081337 Eh    ::
         :: repulsion energy           7.096285304155 Eh    ::
         :: dispersion energy         -0.238675314677 Eh    ::
         :: halogen bond corr.         0.000000000000 Eh    ::
         :: add. restraining           0.000000000000 Eh    ::
         :: total charge              -0.000000000002 e     ::
         :::::::::::::::::::::::::::::::::::::::::::::::::::::

      ----------------------------------------------------------- 
     |                   =====================                   |
     |                        A N C O P T                        |
     |                   =====================                   |
     |               Approximate Normal Coordinate               |
     |                Rational Function Optimizer                |
      ----------------------------------------------------------- 

          ...................................................
          :                      SETUP                      :
          :.................................................:
          :   optimization level            normal          :
          :   max. optcycles                   846          :
          :   ANC micro-cycles                  20          :
          :   degrees of freedom               840          :
          :.................................................:
          :   RF solver                   davidson          :
          :   write xtbopt.log                true          :
          :   linear?                        false          :
          :   energy convergence         0.5000000E-05 Eh   :
          :   grad. convergence          0.1000000E-02 Eh/α :
          :   maximium RF displ.         1.0000000          :
          :   Hlow (freq-cutoff)         0.1000000E-01      :
          :   Hmax (freq-cutoff)         5.0000000          :
          :   S6 in model hess.         20.0000000          :
          ...................................................

generating ANC from model Hessian ...
Using Lindh-Hessian (1995)
 Shifting diagonal of input Hessian by    1.0051752415057267E-002
 Lowest  eigenvalues of input Hessian
    0.010000    0.010029    0.010036    0.010039    0.010040    0.010042
    0.010045    0.010046    0.010048    0.010049    0.010050    0.000000
    0.000000    0.000000    0.000000    0.000000    0.000000    0.010052
 Highest eigenvalues
    2.102086    2.104099    2.104100    2.444848    2.533680    2.542183


........................................................................
.............................. CYCLE    1 ..............................
........................................................................
   1   -446.9595480 -0.446960E+03  0.452E-05    0.12       0.0  T
   2   -446.9595479  0.171184E-06  0.338E-04    0.12      17.6  T
   3   -446.9595479 -0.843186E-07  0.231E-04    0.12      25.8  T
   4   -446.9595480 -0.406052E-07  0.169E-04    0.12      35.2  T
   5   -446.9595480 -0.207722E-07  0.130E-04    0.12      45.9  T
     SCC iter.                  ...        0 min,  1.393 sec
     gradient                   ...        0 min,  0.755 sec
 * total energy  :  -440.1019380 Eh     change        0.2281894E-07 Eh
   gradient norm :     0.7647701 Eh/α   predicted     0.0000000E+00 (-100.00%)
   displ. norm   :     0.5190344 α      lambda       -0.3447925E+00
   maximum displ.:     0.1483061 α      in ANC's #509, #828, #711, ...

........................................................................
.............................. CYCLE    2 ..............................
........................................................................
   1   -447.1850198 -0.447185E+03  0.136E-01    0.17       0.0  T
   2   -447.0718622  0.113158E+00  0.316E-01    0.00       1.0  T
   3   -447.1801111 -0.108249E+00  0.127E-01    0.28       1.0  T
   4   -447.1876857 -0.757461E-02  0.838E-02    0.11       1.0  T
   5   -447.1868845  0.801169E-03  0.776E-02    0.28       1.0  T
   6   -447.1905370 -0.365244E-02  0.483E-02    0.21       1.0  T
   7   -447.1925220 -0.198498E-02  0.308E-02    0.15       1.0  T
   8   -447.1929928 -0.470855E-03  0.171E-02    0.15       1.0  T
   9   -447.1930886 -0.958143E-04  0.142E-02    0.14       1.0  T
  10   -447.1931858 -0.971583E-04  0.505E-03    0.14       1.2  T
  11   -447.1931830  0.276213E-05  0.398E-03    0.14       1.5  T
  12   -447.1931722  0.107964E-04  0.414E-03    0.15       1.4  T
  13   -447.1931845 -0.122954E-04  0.287E-03    0.14       2.1  T
  14   -447.1931964 -0.118595E-04  0.813E-04    0.14       7.3  T
  15   -447.1931970 -0.658871E-06  0.295E-04    0.14      20.2  T
  16   -447.1931971 -0.225094E-07  0.253E-04    0.14      23.5  T
  17   -447.1931971 -0.676522E-07  0.150E-04    0.14      39.7  T
  18   -447.1931972 -0.263503E-07  0.793E-05    0.14      75.1  T
     SCC iter.                  ...        0 min,  5.002 sec
     gradient                   ...        0 min,  0.756 sec
 * total energy  :  -440.3889658 Eh     change       -0.2870278E+00 Eh
   gradient norm :     0.4879578 Eh/α   predicted    -0.2188546E+00 ( -23.75%)
   displ. norm   :     0.6095137 α      lambda       -0.2677983E+00
   maximum displ.:     0.1699425 α      in ANC's #509, #828, #711, ...

........................................................................
.............................. CYCLE    3 ..............................
........................................................................
   1   -447.5318316 -0.447532E+03  0.164E-01    0.20       0.0  T
   2   -447.5236080  0.822358E-02  0.175E-01    0.15       1.0  T
   3   -447.5335827 -0.997466E-02  0.122E-01    0.20       1.0  T
   4   -447.5413476 -0.776491E-02  0.529E-02    0.20       1.0  T
   5   -447.5369899  0.435773E-02  0.671E-02    0.11       1.0  T
   6   -447.5416995 -0.470968E-02  0.334E-02    0.21       1.0  T
   7   -447.5424909 -0.791315E-03  0.177E-02    0.22       1.0  T
   8   -447.5425185 -0.276722E-04  0.149E-02    0.20       1.0  T
   9   -447.5427770 -0.258435E-03  0.560E-03    0.19       1.1  T
  10   -447.5428209 -0.439394E-04  0.159E-03    0.18       3.7  T
  11   -447.5428239 -0.300558E-05  0.797E-04    0.18       7.5  T
  12   -447.5428239  0.451404E-07  0.556E-04    0.18      10.7  T
  13   -447.5428243 -0.405308E-06  0.232E-04    0.18      25.6  T
  14   -447.5428243 -0.193347E-08  0.155E-04    0.18      38.5  T
  15   -447.5428243 -0.251388E-07  0.650E-05    0.18      91.6  T
     SCC iter.                  ...        0 min,  4.178 sec
     gradient                   ...        0 min,  0.754 sec
 * total energy  :  -440.5090472 Eh     change       -0.1200814E+00 Eh
   gradient norm :     0.3511886 Eh/α   predicted    -0.1836608E+00 (  52.95%)
   displ. norm   :     0.4467472 α      lambda       -0.9028916E-01
   maximum displ.:     0.1065518 α      in ANC's #555, #229, #57, ...

........................................................................
.............................. CYCLE    4 ..............................
........................................................................
   1   -447.5256598 -0.447526E+03  0.780E-02    0.24       0.0  T
   2   -447.4827885  0.428713E-01  0.227E-01    0.06       1.0  T
   3   -447.5256855 -0.428969E-01  0.707E-02    0.24       1.0  T
   4   -447.5289512 -0.326570E-02  0.212E-02    0.24       1.0  T
   5   -447.5291868 -0.235588E-03  0.124E-02    0.18       1.0  T
   6   -447.5289872  0.199516E-03  0.137E-02    0.16       1.0  T
   7   -447.5292134 -0.226151E-03  0.353E-03    0.19       1.7  T
   8   -447.5292202 -0.678216E-05  0.185E-03    0.19       3.2  T
   9   -447.5292217 -0.149077E-05  0.106E-03    0.19       5.6  T
  10   -447.5292224 -0.783725E-06  0.256E-04    0.19      23.2  T
  11   -447.5292225 -0.440398E-07  0.125E-04    0.19      47.5  T
  12   -447.5292225  0.229443E-08  0.993E-05    0.19      60.0  T
     SCC iter.                  ...        0 min,  3.348 sec
     gradient                   ...        0 min,  0.752 sec
 * total energy  :  -440.5568277 Eh     change       -0.4778047E-01 Eh
   gradient norm :     0.1131571 Eh/α   predicted    -0.5415467E-01 (  13.34%)
   displ. norm   :     0.6451891 α      lambda       -0.3460984E-01
   maximum displ.:     0.1891455 α      in ANC's #57, #39, #17, ...

........................................................................
.............................. CYCLE    5 ..............................
........................................................................
   1   -447.5518594 -0.447552E+03  0.439E-02    0.26       0.0  T
   2   -447.5504452  0.141427E-02  0.497E-02    0.15       1.0  T
   3   -447.5521194 -0.167420E-02  0.255E-02    0.30       1.0  T
   4   -447.5526397 -0.520334E-03  0.126E-02    0.22       1.0  T
   5   -447.5526705 -0.308232E-04  0.108E-02    0.22       1.0  T
   6   -447.5526998 -0.292808E-04  0.617E-03    0.21       1.0  T
   7   -447.5527071 -0.731554E-05  0.331E-03    0.21       1.8  T
   8   -447.5527201 -0.129686E-04  0.825E-04    0.22       7.2  T
   9   -447.5527206 -0.533034E-06  0.335E-04    0.22      17.8  T
  10   -447.5527207 -0.537004E-07  0.212E-04    0.22      28.1  T
  11   -447.5527207 -0.237562E-07  0.110E-04    0.22      54.2  T
  12   -447.5527207 -0.344517E-08  0.563E-05    0.22     105.7  T
     SCC iter.                  ...        0 min,  3.351 sec
     gradient                   ...        0 min,  0.750 sec
 * total energy  :  -440.5849207 Eh     change       -0.2809305E-01 Eh
   gradient norm :     0.0738521 Eh/α   predicted    -0.2450842E-01 ( -12.76%)
   displ. norm   :     0.8181560 α      lambda       -0.3179751E-01
   maximum displ.:     0.2547189 α      in ANC's #57, #39, #17, ...

........................................................................
.............................. CYCLE    6 ..............................
........................................................................
   1   -447.5498384 -0.447550E+03  0.475E-02    0.39       0.0  T
   2   -447.5499148 -0.764301E-04  0.484E-02    0.29       1.0  T
   3   -447.5508845 -0.969685E-03  0.121E-02    0.34       1.0  T
   4   -447.5508673  0.172116E-04  0.107E-02    0.33       1.0  T
   5   -447.5508935 -0.261658E-04  0.763E-03    0.32       1.0  T
   6   -447.5509139 -0.204040E-04  0.303E-03    0.33       2.0  T
   7   -447.5509200 -0.616028E-05  0.105E-03    0.33       5.7  T
   8   -447.5509208 -0.780076E-06  0.401E-04    0.32      14.8  T
   9   -447.5509209 -0.915282E-07  0.136E-04    0.33      43.8  T
  10   -447.5509209 -0.106950E-07  0.695E-05    0.33      85.7  T
     SCC iter.                  ...        0 min,  2.790 sec
     gradient                   ...        0 min,  0.754 sec
 * total energy  :  -440.6129326 Eh     change       -0.2801188E-01 Eh
   gradient norm :     0.0517605 Eh/α   predicted    -0.2654105E-01 (  -5.25%)
   displ. norm   :     0.9144960 α      lambda       -0.3152752E-01
   maximum displ.:     0.3263335 α      in ANC's #57, #39, #17, ...

........................................................................
.............................. CYCLE    7 ..............................
........................................................................
   1   -447.5212729 -0.447521E+03  0.533E-02    0.61       0.0  T
   2   -447.5212710  0.185629E-05  0.643E-02    0.59       1.0  T
   3   -447.5226776 -0.140659E-02  0.186E-02    0.59       1.0  T
   4   -447.5226183  0.593075E-04  0.158E-02    0.62       1.0  T
   5   -447.5227228 -0.104492E-03  0.625E-03    0.60       1.0  T
   6   -447.5227316 -0.874024E-05  0.242E-03    0.62       2.5  T
   7   -447.5227372 -0.565861E-05  0.851E-04    0.61       7.0  T
   8   -447.5227379 -0.679138E-06  0.382E-04    0.61      15.6  T
   9   -447.5227380 -0.123201E-06  0.131E-04    0.61      45.5  T
  10   -447.5227380 -0.391356E-08  0.620E-05    0.61      96.1  T
     SCC iter.                  ...        0 min,  2.799 sec
     gradient                   ...        0 min,  0.750 sec
 * total energy  :  -440.6444367 Eh     change       -0.3150409E-01 Eh
   gradient norm :     0.0741349 Eh/α   predicted    -0.2894707E-01 (  -8.12%)
   displ. norm   :     0.9559585 α      lambda       -0.3633691E-01
   maximum displ.:     0.3178724 α      in ANC's #57, #39, #17, ...

........................................................................
.............................. CYCLE    8 ..............................
........................................................................
   1   -447.4666115 -0.447467E+03  0.637E-02    0.92       0.0  T
   2   -447.4669513 -0.339793E-03  0.710E-02    0.92       1.0  T
   3   -447.4683599 -0.140861E-02  0.244E-02    0.92       1.0  T
   4   -447.4681855  0.174482E-03  0.191E-02    0.92       1.0  T
   5   -447.4683541 -0.168659E-03  0.811E-03    0.92       1.0  T
   6   -447.4683947 -0.406210E-04  0.203E-03    0.92       2.9  T
   7   -447.4683978 -0.305346E-05  0.787E-04    0.92       7.6  T
   8   -447.4683983 -0.542455E-06  0.360E-04    0.92      16.6  T
   9   -447.4683984 -0.112089E-06  0.168E-04    0.92      35.5  T
  10   -447.4683985 -0.156280E-07  0.656E-05    0.92      90.8  T
     SCC iter.                  ...        0 min,  2.821 sec
     gradient                   ...        0 min,  0.755 sec
 * total energy  :  -440.6780830 Eh     change       -0.3364626E-01 Eh
   gradient norm :     0.1157239 Eh/α   predicted    -0.3477179E-01 (   3.35%)
   displ. norm   :     0.8960796 α      lambda       -0.3039085E-01
   maximum displ.:     0.3334036 α      in ANC's #57, #39, #17, ...

........................................................................
.............................. CYCLE    9 ..............................
........................................................................
   1   -447.4397659 -0.447440E+03  0.521E-02    0.89       0.0  T
   2   -447.4400374 -0.271461E-03  0.530E-02    0.89       1.0  T
   3   -447.4406381 -0.600759E-03  0.207E-02    0.89       1.0  T
   4   -447.4403942  0.243877E-03  0.186E-02    0.89       1.0  T
   5   -447.4406447 -0.250454E-03  0.456E-03    0.89       1.3  T
   6   -447.4406570 -0.122913E-04  0.148E-03    0.89       4.0  T
   7   -447.4406592 -0.219316E-05  0.737E-04    0.89       8.1  T
   8   -447.4406598 -0.581191E-06  0.167E-04    0.89      35.6  T
   9   -447.4406598 -0.759240E-08  0.965E-05    0.89      61.7  T
     SCC iter.                  ...        0 min,  2.520 sec
     gradient                   ...        0 min,  0.753 sec
 * total energy  :  -440.7020023 Eh     change       -0.2391929E-01 Eh
   gradient norm :     0.1329771 Eh/α   predicted    -0.2739670E-01 (  14.54%)
   displ. norm   :     0.7490587 α      lambda       -0.2678967E-01
   maximum displ.:     0.2805139 α      in ANC's #57, #39, #17, ...

........................................................................
.............................. CYCLE   10 ..............................
........................................................................
   1   -447.4509509 -0.447451E+03  0.329E-02    0.88       0.0  T
   2   -447.4511688 -0.217903E-03  0.319E-02    0.88       1.0  T
   3   -447.4513436 -0.174725E-03  0.140E-02    0.88       1.0  T
   4   -447.4512416  0.101930E-03  0.112E-02    0.88       1.0  T
   5   -447.4513414 -0.997252E-04  0.316E-03    0.88       1.9  T
   6   -447.4513509 -0.958428E-05  0.111E-03    0.88       5.4  T
   7   -447.4513520 -0.105637E-05  0.388E-04    0.88      15.4  T
   8   -447.4513521 -0.133744E-06  0.152E-04    0.88      39.2  T
   9   -447.4513521 -0.157413E-07  0.705E-05    0.88      84.5  T
     SCC iter.                  ...        0 min,  2.530 sec
     gradient                   ...        0 min,  0.751 sec
 * total energy  :  -440.7270494 Eh     change       -0.2504717E-01 Eh
   gradient norm :     0.1438662 Eh/α   predicted    -0.2091058E-01 ( -16.52%)
   displ. norm   :     0.8013751 α      lambda       -0.4419164E-01
   maximum displ.:     0.2627982 α      in ANC's #57, #39, #17, ...

........................................................................
.............................. CYCLE   11 ..............................
........................................................................
   1   -447.4823919 -0.447482E+03  0.649E-02    0.90       0.0  T
   2   -447.4830121 -0.620166E-03  0.572E-02    0.90       1.0  T
   3   -447.4837636 -0.751525E-03  0.242E-02    0.90       1.0  T
   4   -447.4833308  0.432859E-03  0.268E-02    0.90       1.0  T
   5   -447.4838253 -0.494542E-03  0.714E-03    0.90       1.0  T
   6   -447.4838420 -0.167227E-04  0.183E-03    0.90       3.3  T
   7   -447.4838449 -0.290012E-05  0.899E-04    0.90       6.6  T
   8   -447.4838458 -0.863616E-06  0.265E-04    0.90      22.5  T
   9   -447.4838458 -0.320701E-07  0.144E-04    0.90      41.3  T
  10   -447.4838458 -0.118451E-07  0.671E-05    0.90      88.7  T
     SCC iter.                  ...        0 min,  2.797 sec
     gradient                   ...        0 min,  0.753 sec
 * total energy  :  -440.7558213 Eh     change       -0.2877183E-01 Eh
   gradient norm :     0.1186861 Eh/α   predicted    -0.3628579E-01 (  26.12%)
   displ. norm   :     0.8042130 α      lambda       -0.3651520E-01
   maximum displ.:     0.3266340 α      in ANC's #57, #39, #17, ...

........................................................................
.............................. CYCLE   12 ..............................
........................................................................
   1   -447.5697886 -0.447570E+03  0.524E-02    0.96       0.0  T
   2   -447.5702665 -0.477938E-03  0.344E-02    0.95       1.0  T
   3   -447.5707182 -0.451699E-03  0.164E-02    0.95       1.0  T
   4   -447.5707566 -0.384048E-04  0.130E-02    0.95       1.0  T
   5   -447.5708446 -0.879841E-04  0.467E-03    0.95       1.3  T
   6   -447.5708540 -0.942298E-05  0.142E-03    0.95       4.2  T
   7   -447.5708558 -0.176891E-05  0.637E-04    0.95       9.3  T
   8   -447.5708562 -0.402711E-06  0.267E-04    0.95      22.3  T
   9   -447.5708563 -0.534421E-07  0.983E-05    0.95      60.5  T
  10   -447.5708563 -0.541576E-08  0.450E-05    0.95     132.4  T
     SCC iter.                  ...        0 min,  2.795 sec
     gradient                   ...        0 min,  0.754 sec
 * total energy  :  -440.7708895 Eh     change       -0.1506819E-01 Eh
   gradient norm :     0.1214899 Eh/α   predicted    -0.3006587E-01 (  99.53%)
   displ. norm   :     0.6471438 α      lambda       -0.3708232E-01
   maximum displ.:     0.2479288 α      in ANC's #57, #39, #17, ...

........................................................................
.............................. CYCLE   13 ..............................
........................................................................
   1   -447.5734946 -0.447573E+03  0.440E-02    0.91       0.0  T
   2   -447.5737598 -0.265180E-03  0.419E-02    0.92       1.0  T
   3   -447.5740672 -0.307465E-03  0.190E-02    0.92       1.0  T
   4   -447.5738358  0.231409E-03  0.176E-02    0.92       1.0  T
   5   -447.5740711 -0.235253E-03  0.396E-03    0.92       1.5  T
   6   -447.5740807 -0.960944E-05  0.104E-03    0.92       5.7  T
   7   -447.5740814 -0.747337E-06  0.590E-04    0.92      10.1  T
   8   -447.5740818 -0.406241E-06  0.172E-04    0.92      34.6  T
   9   -447.5740819 -0.216117E-07  0.685E-05    0.92      86.9  T
     SCC iter.                  ...        0 min,  2.525 sec
     gradient                   ...        0 min,  0.761 sec
 * total energy  :  -440.7923270 Eh     change       -0.2143753E-01 Eh
   gradient norm :     0.0784794 Eh/α   predicted    -0.2630608E-01 (  22.71%)
   displ. norm   :     0.6718224 α      lambda       -0.2605317E-01
   maximum displ.:     0.2446895 α      in ANC's #39, #57, #17, ...

........................................................................
.............................. CYCLE   14 ..............................
........................................................................
   1   -447.6204412 -0.447620E+03  0.343E-02    0.91       0.0  T
   2   -447.6205857 -0.144541E-03  0.296E-02    0.91       1.0  T
   3   -447.6207608 -0.175123E-03  0.127E-02    0.91       1.0  T
   4   -447.6206292  0.131654E-03  0.137E-02    0.91       1.0  T
   5   -447.6207717 -0.142554E-03  0.360E-03    0.91       1.7  T
   6   -447.6207808 -0.905889E-05  0.101E-03    0.91       5.9  T
   7   -447.6207818 -0.104294E-05  0.323E-04    0.91      18.4  T
   8   -447.6207819 -0.120044E-06  0.105E-04    0.91      56.9  T
   9   -447.6207819 -0.703437E-08  0.409E-05    0.91     145.8  T
     SCC iter.                  ...        0 min,  2.527 sec
     gradient                   ...        0 min,  0.756 sec
 * total energy  :  -440.8080548 Eh     change       -0.1572782E-01 Eh
   gradient norm :     0.0885152 Eh/α   predicted    -0.1890610E-01 (  20.21%)
   displ. norm   :     0.8150402 α      lambda       -0.2302288E-01
   maximum displ.:     0.3572139 α      in ANC's #57, #39, #17, ...

........................................................................
.............................. CYCLE   15 ..............................
........................................................................
   1   -447.6635416 -0.447664E+03  0.193E-02    0.93       0.0  T
   2   -447.6635624 -0.207850E-04  0.171E-02    0.93       1.0  T
   3   -447.6636443 -0.818886E-04  0.675E-03    0.93       1.0  T
   4   -447.6636011  0.431745E-04  0.822E-03    0.93       1.0  T
   5   -447.6636535 -0.524248E-04  0.206E-03    0.93       2.9  T
   6   -447.6636549 -0.132805E-05  0.678E-04    0.93       8.8  T
   7   -447.6636554 -0.568925E-06  0.158E-04    0.93      37.8  T
   8   -447.6636555 -0.230282E-07  0.451E-05    0.93     132.1  T
     SCC iter.                  ...        0 min,  2.240 sec
     gradient                   ...        0 min,  0.774 sec
 * total energy  :  -440.8266910 Eh     change       -0.1863618E-01 Eh
   gradient norm :     0.0505504 Eh/α   predicted    -0.1915840E-01 (   2.80%)
   displ. norm   :     0.8506138 α      lambda       -0.2146727E-01
   maximum displ.:     0.3600114 α      in ANC's #39, #17, #57, ...

........................................................................
.............................. CYCLE   16 ..............................
........................................................................
   1   -447.7101468 -0.447710E+03  0.161E-02    0.94       0.0  T
   2   -447.7101741 -0.273082E-04  0.130E-02    0.95       1.0  T
   3   -447.7102169 -0.428622E-04  0.577E-03    0.94       1.0  T
   4   -447.7101931  0.238227E-04  0.641E-03    0.94       1.0  T
   5   -447.7102292 -0.360303E-04  0.170E-03    0.95       3.5  T
   6   -447.7102296 -0.447142E-06  0.747E-04    0.94       8.0  T
   7   -447.7102302 -0.629793E-06  0.161E-04    0.94      37.1  T
   8   -447.7102303 -0.228257E-07  0.403E-05    0.94     147.7  T
     SCC iter.                  ...        0 min,  2.238 sec
     gradient                   ...        0 min,  0.758 sec
 * total energy  :  -440.8385941 Eh     change       -0.1190315E-01 Eh
   gradient norm :     0.0798168 Eh/α   predicted    -0.1849989E-01 (  55.42%)
   displ. norm   :     0.7733447 α      lambda       -0.2220972E-01
   maximum displ.:     0.3469140 α      in ANC's #39, #57, #17, ...

........................................................................
.............................. CYCLE   17 ..............................
........................................................................
   1   -447.7478347 -0.447748E+03  0.191E-02    0.93       0.0  T
   2   -447.7478465 -0.117418E-04  0.156E-02    0.93       1.0  T
   3   -447.7478877 -0.412381E-04  0.767E-03    0.93       1.0  T
   4   -447.7478520  0.356739E-04  0.765E-03    0.93       1.0  T
   5   -447.7479004 -0.483430E-04  0.147E-03    0.93       4.0  T
   6   -447.7479021 -0.176149E-05  0.505E-04    0.93      11.8  T
   7   -447.7479024 -0.300864E-06  0.155E-04    0.93      38.4  T
   8   -447.7479025 -0.264668E-07  0.428E-05    0.93     139.0  T
     SCC iter.                  ...        0 min,  2.239 sec
     gradient                   ...        0 min,  0.756 sec
 * total energy  :  -440.8546745 Eh     change       -0.1608033E-01 Eh
   gradient norm :     0.0452382 Eh/α   predicted    -0.1774625E-01 (  10.36%)
   displ. norm   :     0.8409890 α      lambda       -0.1825153E-01
   maximum displ.:     0.3868053 α      in ANC's #39, #17, #57, ...

........................................................................
.............................. CYCLE   18 ..............................
........................................................................
   1   -447.7591374 -0.447759E+03  0.165E-02    0.91       0.0  T
   2   -447.7591867 -0.493207E-04  0.114E-02    0.91       1.0  T
   3   -447.7592061 -0.193843E-04  0.557E-03    0.91       1.1  T
   4   -447.7591969  0.917188E-05  0.499E-03    0.91       1.2  T
   5   -447.7592082 -0.113429E-04  0.220E-03    0.91       2.7  T
   6   -447.7592138 -0.555405E-05  0.518E-04    0.91      11.5  T
   7   -447.7592141 -0.266301E-06  0.165E-04    0.91      36.0  T
   8   -447.7592141 -0.243002E-07  0.624E-05    0.91      95.4  T
     SCC iter.                  ...        0 min,  2.245 sec
     gradient                   ...        0 min,  0.759 sec
 * total energy  :  -440.8639540 Eh     change       -0.9279576E-02 Eh
   gradient norm :     0.0998256 Eh/α   predicted    -0.1558007E-01 (  67.90%)
   displ. norm   :     0.7299393 α      lambda       -0.1798796E-01
   maximum displ.:     0.3411979 α      in ANC's #39, #17, #57, ...

........................................................................
.............................. CYCLE   19 ..............................
........................................................................
   1   -447.8036875 -0.447804E+03  0.138E-02    0.92       0.0  T
   2   -447.8036947 -0.714498E-05  0.987E-03    0.92       1.0  T
   3   -447.8037224 -0.277692E-04  0.495E-03    0.92       1.2  T
   4   -447.8037291 -0.670050E-05  0.482E-03    0.92       1.2  T
   5   -447.8037468 -0.176348E-04  0.146E-03    0.92       4.1  T
   6   -447.8037473 -0.569878E-06  0.524E-04    0.92      11.4  T
   7   -447.8037476 -0.301824E-06  0.144E-04    0.92      41.4  T
   8   -447.8037477 -0.194848E-07  0.450E-05    0.92     132.3  T
     SCC iter.                  ...        0 min,  2.246 sec
     gradient                   ...        0 min,  0.768 sec
 * total energy  :  -440.8778256 Eh     change       -0.1387155E-01 Eh
   gradient norm :     0.0290644 Eh/α   predicted    -0.1378607E-01 (  -0.62%)
   displ. norm   :     0.8791003 α      lambda       -0.1353447E-01
   maximum displ.:     0.4352317 α      in ANC's #39, #17, #57, ...

........................................................................
.............................. CYCLE   20 ..............................
........................................................................
   1   -447.8409791 -0.447841E+03  0.902E-03    0.93       0.0  T
   2   -447.8409769  0.218927E-05  0.802E-03    0.93       1.0  T
   3   -447.8410024 -0.255524E-04  0.343E-03    0.93       1.7  T
   4   -447.8409947  0.772468E-05  0.394E-03    0.93       1.5  T
   5   -447.8410079 -0.131726E-04  0.843E-04    0.93       7.1  T
   6   -447.8410079 -0.656485E-07  0.456E-04    0.93      13.0  T
   7   -447.8410082 -0.243666E-06  0.727E-05    0.93      82.0  T
   8   -447.8410082 -0.432721E-08  0.248E-05    0.93     239.8  T
     SCC iter.                  ...        0 min,  2.250 sec
     gradient                   ...        0 min,  0.764 sec
 * total energy  :  -440.8880122 Eh     change       -0.1018662E-01 Eh
   gradient norm :     0.0418759 Eh/α   predicted    -0.1199707E-01 (  17.77%)
   displ. norm   :     0.8569710 α      lambda       -0.1326146E-01
   maximum displ.:     0.4366436 α      in ANC's #17, #39, #57, ...
 * RMSD in coord.:     0.6959650 α      energy gain  -0.7860742E+00 Eh

generating ANC from model Hessian ...
Using Lindh-Hessian (1995)
 Shifting diagonal of input Hessian by    1.0009821019144789E-002
 Lowest  eigenvalues of input Hessian
    0.010000    0.010001    0.010004    0.010004    0.010006    0.010007
    0.010008    0.010009    0.010010    0.000000    0.000000    0.000000
    0.000000    0.000000    0.000000    0.010022    0.010031    0.010044
 Highest eigenvalues
    2.132517    2.161808    2.171362    2.592101    2.619123    2.632612


........................................................................
.............................. CYCLE   21 ..............................
........................................................................
   1   -447.8707883 -0.447871E+03  0.984E-03    0.92       0.0  T
   2   -447.8707932 -0.489362E-05  0.622E-03    0.92       1.0  T
   3   -447.8707945 -0.132564E-05  0.371E-03    0.92       1.6  T
   4   -447.8707996 -0.509476E-05  0.342E-03    0.92       1.7  T
   5   -447.8708082 -0.861753E-05  0.766E-04    0.92       7.8  T
   6   -447.8708087 -0.523778E-06  0.276E-04    0.92      21.5  T
   7   -447.8708088 -0.843857E-07  0.647E-05    0.92      92.0  T
   8   -447.8708088 -0.325605E-08  0.247E-05    0.92     240.6  T
     SCC iter.                  ...        0 min,  2.248 sec
     gradient                   ...        0 min,  0.761 sec
 * total energy  :  -440.8986670 Eh     change       -0.1065481E-01 Eh
   gradient norm :     0.0204122 Eh/α   predicted     0.0000000E+00 (-100.00%)
   displ. norm   :     0.6013962 α      lambda       -0.7460628E-02
   maximum displ.:     0.4047933 α      in ANC's #37, #19, #63, ...

........................................................................
.............................. CYCLE   22 ..............................
........................................................................
   1   -447.8907650 -0.447891E+03  0.335E-03    0.92       0.0  T
   2   -447.8907650 -0.155089E-07  0.261E-03    0.92       2.3  T
   3   -447.8907674 -0.239682E-05  0.123E-03    0.92       4.8  T
   4   -447.8907672  0.224862E-06  0.129E-03    0.92       4.6  T
   5   -447.8907685 -0.130425E-05  0.289E-04    0.92      20.6  T
   6   -447.8907685 -0.545365E-07  0.135E-04    0.92      44.2  T
   7   -447.8907685 -0.210233E-07  0.275E-05    0.92     216.8  T
     SCC iter.                  ...        0 min,  1.974 sec
     gradient                   ...        0 min,  0.759 sec
 * total energy  :  -440.9053900 Eh     change       -0.6723006E-02 Eh
   gradient norm :     0.0144253 Eh/α   predicted    -0.5079492E-02 ( -24.45%)
   displ. norm   :     0.8683881 α      lambda       -0.9986245E-02
   maximum displ.:     0.5452996 α      in ANC's #37, #19, #63, ...

........................................................................
.............................. CYCLE   23 ..............................
........................................................................
   1   -447.9165727 -0.447917E+03  0.543E-03    0.92       0.0  T
   2   -447.9165739 -0.123865E-05  0.407E-03    0.92       1.5  T
   3   -447.9165796 -0.566095E-05  0.185E-03    0.92       3.2  T
   4   -447.9165789  0.703084E-06  0.203E-03    0.92       2.9  T
   5   -447.9165821 -0.323921E-05  0.441E-04    0.92      13.5  T
   6   -447.9165822 -0.101488E-06  0.209E-04    0.92      28.4  T
   7   -447.9165823 -0.527880E-07  0.389E-05    0.92     153.0  T
   8   -447.9165823 -0.862599E-09  0.152E-05    0.92     392.1  T
     SCC iter.                  ...        0 min,  2.254 sec
     gradient                   ...        0 min,  0.759 sec
 * total energy  :  -440.9135945 Eh     change       -0.8204530E-02 Eh
   gradient norm :     0.0198774 Eh/α   predicted    -0.8758428E-02 (   6.75%)
   displ. norm   :     0.8626341 α      lambda       -0.9762486E-02
   maximum displ.:     0.5417126 α      in ANC's #37, #19, #63, ...

........................................................................
.............................. CYCLE   24 ..............................
........................................................................
   1   -447.9391470 -0.447939E+03  0.508E-03    0.92       0.0  T
   2   -447.9391469  0.132689E-06  0.367E-03    0.92       1.6  T
   3   -447.9391496 -0.267404E-05  0.202E-03    0.92       2.9  T
   4   -447.9391512 -0.157271E-05  0.187E-03    0.92       3.2  T
   5   -447.9391538 -0.268276E-05  0.355E-04    0.92      16.8  T
   6   -447.9391539 -0.660718E-07  0.144E-04    0.92      41.3  T
   7   -447.9391539 -0.228936E-07  0.371E-05    0.92     160.4  T
     SCC iter.                  ...        0 min,  1.967 sec
     gradient                   ...        0 min,  0.762 sec
 * total energy  :  -440.9214418 Eh     change       -0.7847276E-02 Eh
   gradient norm :     0.0203720 Eh/α   predicted    -0.8513558E-02 (   8.49%)
   displ. norm   :     0.8573380 α      lambda       -0.8631390E-02
   maximum displ.:     0.5639914 α      in ANC's #37, #19, #63, ...

........................................................................
.............................. CYCLE   25 ..............................
........................................................................
   1   -447.9600711 -0.447960E+03  0.476E-03    0.92       0.0  T
   2   -447.9600700  0.111341E-05  0.357E-03    0.92       1.7  T
   3   -447.9600733 -0.321792E-05  0.195E-03    0.92       3.1  T
   4   -447.9600747 -0.149399E-05  0.167E-03    0.92       3.6  T
   5   -447.9600769 -0.215041E-05  0.294E-04    0.92      20.2  T
   6   -447.9600769 -0.522017E-07  0.141E-04    0.92      42.3  T
   7   -447.9600770 -0.219727E-07  0.314E-05    0.92     189.5  T
     SCC iter.                  ...        0 min,  1.967 sec
     gradient                   ...        0 min,  0.754 sec
 * total energy  :  -440.9286329 Eh     change       -0.7191055E-02 Eh
   gradient norm :     0.0174060 Eh/α   predicted    -0.7487860E-02 (   4.13%)
   displ. norm   :     0.8505063 α      lambda       -0.8037068E-02
   maximum displ.:     0.5667047 α      in ANC's #37, #19, #28, ...

........................................................................
.............................. CYCLE   26 ..............................
........................................................................
   1   -447.9804074 -0.447980E+03  0.470E-03    0.92       0.0  T
   2   -447.9804070  0.364245E-06  0.345E-03    0.92       1.7  T
   3   -447.9804105 -0.345691E-05  0.184E-03    0.92       3.2  T
   4   -447.9804108 -0.362234E-06  0.162E-03    0.92       3.7  T
   5   -447.9804130 -0.215861E-05  0.336E-04    0.92      17.7  T
   6   -447.9804131 -0.102965E-06  0.143E-04    0.92      41.6  T
   7   -447.9804131 -0.231871E-07  0.274E-05    0.92     217.6  T
     SCC iter.                  ...        0 min,  1.956 sec
     gradient                   ...        0 min,  0.767 sec
 * total energy  :  -440.9354677 Eh     change       -0.6834782E-02 Eh
   gradient norm :     0.0145411 Eh/α   predicted    -0.6925384E-02 (   1.33%)
   displ. norm   :     0.8636102 α      lambda       -0.7835289E-02
   maximum displ.:     0.5695235 α      in ANC's #37, #19, #28, ...

........................................................................
.............................. CYCLE   27 ..............................
........................................................................
   1   -447.9991709 -0.447999E+03  0.395E-03    0.92       0.0  T
   2   -447.9991718 -0.900581E-06  0.292E-03    0.92       2.0  T
   3   -447.9991752 -0.333863E-05  0.136E-03    0.92       4.4  T
   4   -447.9991747  0.506150E-06  0.134E-03    0.92       4.5  T
   5   -447.9991762 -0.150489E-05  0.318E-04    0.92      18.7  T
   6   -447.9991763 -0.964543E-07  0.128E-04    0.92      46.4  T
   7   -447.9991763 -0.170471E-07  0.278E-05    0.92     214.6  T
     SCC iter.                  ...        0 min,  1.967 sec
     gradient                   ...        0 min,  0.767 sec
 * total energy  :  -440.9411722 Eh     change       -0.5704558E-02 Eh
   gradient norm :     0.0190844 Eh/α   predicted    -0.6839513E-02 (  19.90%)
   displ. norm   :     0.7973745 α      lambda       -0.7332680E-02
   maximum displ.:     0.5410064 α      in ANC's #37, #19, #28, ...

........................................................................
.............................. CYCLE   28 ..............................
........................................................................
   1   -448.0206687 -0.448021E+03  0.465E-03    0.92       0.0  T
   2   -448.0206689 -0.242884E-06  0.342E-03    0.92       1.7  T
   3   -448.0206706 -0.168520E-05  0.188E-03    0.92       3.2  T
   4   -448.0206705  0.102385E-06  0.141E-03    0.92       4.2  T
   5   -448.0206723 -0.173054E-05  0.282E-04    0.92      21.1  T
   6   -448.0206723 -0.810014E-07  0.134E-04    0.92      44.5  T
   7   -448.0206724 -0.220768E-07  0.232E-05    0.92     257.0  T
     SCC iter.                  ...        0 min,  1.976 sec
     gradient                   ...        0 min,  0.767 sec
 * total energy  :  -440.9475692 Eh     change       -0.6397019E-02 Eh
   gradient norm :     0.0116365 Eh/α   predicted    -0.5997421E-02 (  -6.25%)
   displ. norm   :     0.8684887 α      lambda       -0.6365608E-02
   maximum displ.:     0.5945557 α      in ANC's #37, #19, #28, ...

........................................................................
.............................. CYCLE   29 ..............................
........................................................................
   1   -448.0391468 -0.448039E+03  0.334E-03    0.91       0.0  T
   2   -448.0391478 -0.955462E-06  0.217E-03    0.92       2.7  T
   3   -448.0391489 -0.115557E-05  0.119E-03    0.92       5.0  T
   4   -448.0391487  0.236850E-06  0.944E-04    0.92       6.3  T
   5   -448.0391495 -0.786141E-06  0.228E-04    0.92      26.1  T
   6   -448.0391495 -0.584108E-07  0.937E-05    0.92      63.6  T
   7   -448.0391495 -0.100726E-07  0.205E-05    0.92     291.1  T
     SCC iter.                  ...        0 min,  1.974 sec
     gradient                   ...        0 min,  0.760 sec
 * total energy  :  -440.9535301 Eh     change       -0.5960869E-02 Eh
   gradient norm :     0.0099149 Eh/α   predicted    -0.5583504E-02 (  -6.33%)
   displ. norm   :     0.8942803 α      lambda       -0.6032186E-02
   maximum displ.:     0.6106908 α      in ANC's #37, #19, #28, ...

........................................................................
.............................. CYCLE   30 ..............................
........................................................................
   1   -448.0562019 -0.448056E+03  0.306E-03    0.91       0.0  T
   2   -448.0562028 -0.913223E-06  0.187E-03    0.91       3.2  T
   3   -448.0562037 -0.824886E-06  0.109E-03    0.91       5.5  T
   4   -448.0562037 -0.145625E-07  0.713E-04    0.91       8.4  T
   5   -448.0562040 -0.342292E-06  0.216E-04    0.91      27.6  T
   6   -448.0562041 -0.497142E-07  0.636E-05    0.91      93.7  T
   7   -448.0562041 -0.433533E-08  0.197E-05    0.91     302.2  T
     SCC iter.                  ...        0 min,  1.965 sec
     gradient                   ...        0 min,  0.757 sec
 * total energy  :  -440.9593142 Eh     change       -0.5784103E-02 Eh
   gradient norm :     0.0089374 Eh/α   predicted    -0.5428186E-02 (  -6.15%)
   displ. norm   :     0.9170824 α      lambda       -0.5999286E-02
   maximum displ.:     0.6233613 α      in ANC's #37, #19, #28, ...

........................................................................
.............................. CYCLE   31 ..............................
........................................................................
   1   -448.0718939 -0.448072E+03  0.288E-03    0.91       0.0  T
   2   -448.0718947 -0.777666E-06  0.170E-03    0.91       3.5  T
   3   -448.0718954 -0.673341E-06  0.105E-03    0.91       5.7  T
   4   -448.0718954 -0.881195E-07  0.684E-04    0.91       8.7  T
   5   -448.0718957 -0.275187E-06  0.216E-04    0.91      27.6  T
   6   -448.0718958 -0.526566E-07  0.654E-05    0.91      91.0  T
   7   -448.0718958 -0.472517E-08  0.188E-05    0.91     316.7  T
     SCC iter.                  ...        0 min,  1.951 sec
     gradient                   ...        0 min,  0.758 sec
 * total energy  :  -440.9648819 Eh     change       -0.5567656E-02 Eh
   gradient norm :     0.0084955 Eh/α   predicted    -0.5522471E-02 (  -0.81%)
   displ. norm   :     0.9209999 α      lambda       -0.5771176E-02
   maximum displ.:     0.6238422 α      in ANC's #37, #19, #28, ...

........................................................................
.............................. CYCLE   32 ..............................
........................................................................
   1   -448.0869340 -0.448087E+03  0.297E-03    0.91       0.0  T
   2   -448.0869345 -0.492333E-06  0.178E-03    0.91       3.3  T
   3   -448.0869351 -0.546995E-06  0.119E-03    0.91       5.0  T
   4   -448.0869353 -0.260806E-06  0.792E-04    0.91       7.5  T
   5   -448.0869358 -0.440844E-06  0.209E-04    0.91      28.4  T
   6   -448.0869358 -0.582670E-07  0.642E-05    0.91      92.7  T
   7   -448.0869358 -0.410625E-08  0.175E-05    0.91     340.0  T
     SCC iter.                  ...        0 min,  1.946 sec
     gradient                   ...        0 min,  0.761 sec
 * total energy  :  -440.9702804 Eh     change       -0.5398542E-02 Eh
   gradient norm :     0.0069247 Eh/α   predicted    -0.5333272E-02 (  -1.21%)
   displ. norm   :     0.9384244 α      lambda       -0.5253126E-02
   maximum displ.:     0.6331555 α      in ANC's #37, #19, #28, ...

........................................................................
.............................. CYCLE   33 ..............................
........................................................................
   1   -448.1002437 -0.448100E+03  0.282E-03    0.91       0.0  T
   2   -448.1002442 -0.491954E-06  0.172E-03    0.91       3.5  T
   3   -448.1002450 -0.797258E-06  0.108E-03    0.91       5.5  T
   4   -448.1002451 -0.114962E-06  0.769E-04    0.91       7.7  T
   5   -448.1002456 -0.438131E-06  0.176E-04    0.91      33.9  T
   6   -448.1002456 -0.404937E-07  0.633E-05    0.91      94.1  T
     SCC iter.                  ...        0 min,  1.672 sec
     gradient                   ...        0 min,  0.760 sec
 * total energy  :  -440.9753220 Eh     change       -0.5041621E-02 Eh
   gradient norm :     0.0059747 Eh/α   predicted    -0.4939614E-02 (  -2.02%)
   displ. norm   :     0.9453246 α      lambda       -0.4910442E-02
   maximum displ.:     0.6311192 α      in ANC's #37, #19, #28, ...

........................................................................
.............................. CYCLE   34 ..............................
........................................................................
   1   -448.1140974 -0.448114E+03  0.278E-03    0.91       0.0  T
   2   -448.1140978 -0.430623E-06  0.168E-03    0.91       3.5  T
   3   -448.1140985 -0.682389E-06  0.109E-03    0.91       5.5  T
   4   -448.1140986 -0.119019E-06  0.737E-04    0.91       8.1  T
   5   -448.1140990 -0.408120E-06  0.167E-04    0.91      35.7  T
   6   -448.1140991 -0.374607E-07  0.569E-05    0.91     104.6  T
     SCC iter.                  ...        0 min,  1.682 sec
     gradient                   ...        0 min,  0.761 sec
 * total energy  :  -440.9800320 Eh     change       -0.4709938E-02 Eh
   gradient norm :     0.0053537 Eh/α   predicted    -0.4649307E-02 (  -1.29%)
   displ. norm   :     0.9449295 α      lambda       -0.4547912E-02
   maximum displ.:     0.6223469 α      in ANC's #37, #19, #28, ...

........................................................................
.............................. CYCLE   35 ..............................
........................................................................
   1   -448.1281248 -0.448128E+03  0.274E-03    0.91       0.0  T
   2   -448.1281254 -0.541731E-06  0.162E-03    0.91       3.7  T
   3   -448.1281261 -0.686749E-06  0.103E-03    0.91       5.8  T
   4   -448.1281261 -0.424361E-07  0.668E-04    0.91       8.9  T
   5   -448.1281264 -0.331239E-06  0.154E-04    0.91      38.6  T
   6   -448.1281265 -0.298512E-07  0.564E-05    0.91     105.7  T
     SCC iter.                  ...        0 min,  1.684 sec
     gradient                   ...        0 min,  0.759 sec
 * total energy  :  -440.9843819 Eh     change       -0.4349909E-02 Eh
   gradient norm :     0.0049983 Eh/α   predicted    -0.4304360E-02 (  -1.05%)
   displ. norm   :     0.9366873 α      lambda       -0.4171286E-02
   maximum displ.:     0.6046137 α      in ANC's #37, #19, #28, ...

........................................................................
.............................. CYCLE   36 ..............................
........................................................................
   1   -448.1418709 -0.448142E+03  0.266E-03    0.90       0.0  T
   2   -448.1418715 -0.628005E-06  0.155E-03    0.90       3.8  T
   3   -448.1418722 -0.677326E-06  0.974E-04    0.90       6.1  T
   4   -448.1418722 -0.436203E-07  0.562E-04    0.90      10.6  T
   5   -448.1418724 -0.202345E-06  0.147E-04    0.90      40.6  T
   6   -448.1418725 -0.252407E-07  0.519E-05    0.90     114.7  T
     SCC iter.                  ...        0 min,  1.682 sec
     gradient                   ...        0 min,  0.818 sec
 * total energy  :  -440.9883571 Eh     change       -0.3975266E-02 Eh
   gradient norm :     0.0046582 Eh/α   predicted    -0.3915558E-02 (  -1.50%)
   displ. norm   :     0.9249095 α      lambda       -0.3795195E-02
   maximum displ.:     0.5995308 α      in ANC's #19, #37, #28, ...

........................................................................
.............................. CYCLE   37 ..............................
........................................................................
   1   -448.1556607 -0.448156E+03  0.263E-03    0.90       0.0  T
   2   -448.1556614 -0.640758E-06  0.155E-03    0.90       3.8  T
   3   -448.1556621 -0.704595E-06  0.949E-04    0.90       6.3  T
   4   -448.1556621 -0.653840E-07  0.548E-04    0.90      10.9  T
   5   -448.1556623 -0.172516E-06  0.141E-04    0.90      42.4  T
   6   -448.1556623 -0.214739E-07  0.488E-05    0.90     122.1  T
     SCC iter.                  ...        0 min,  1.686 sec
     gradient                   ...        0 min,  0.764 sec
 * total energy  :  -440.9919673 Eh     change       -0.3610162E-02 Eh
   gradient norm :     0.0042234 Eh/α   predicted    -0.3520920E-02 (  -2.47%)
   displ. norm   :     0.9092454 α      lambda       -0.3415466E-02
   maximum displ.:     0.6004102 α      in ANC's #19, #37, #28, ...

........................................................................
.............................. CYCLE   38 ..............................
........................................................................
   1   -448.1689862 -0.448169E+03  0.253E-03    0.90       0.0  T
   2   -448.1689868 -0.625572E-06  0.148E-03    0.90       4.0  T
   3   -448.1689875 -0.648336E-06  0.912E-04    0.90       6.5  T
   4   -448.1689875 -0.603476E-07  0.510E-04    0.90      11.7  T
   5   -448.1689877 -0.145726E-06  0.136E-04    0.90      43.7  T
   6   -448.1689877 -0.196088E-07  0.444E-05    0.90     134.2  T
     SCC iter.                  ...        0 min,  1.675 sec
     gradient                   ...        0 min,  0.765 sec
 * total energy  :  -440.9952176 Eh     change       -0.3250251E-02 Eh
   gradient norm :     0.0037304 Eh/α   predicted    -0.3119569E-02 (  -4.02%)
   displ. norm   :     0.8892184 α      lambda       -0.3045023E-02
   maximum displ.:     0.5972426 α      in ANC's #19, #37, #28, ...

........................................................................
.............................. CYCLE   39 ..............................
........................................................................
   1   -448.1816838 -0.448182E+03  0.245E-03    0.90       0.0  T
   2   -448.1816844 -0.585131E-06  0.145E-03    0.90       4.1  T
   3   -448.1816850 -0.643784E-06  0.878E-04    0.90       6.8  T
   4   -448.1816851 -0.540606E-07  0.515E-04    0.90      11.6  T
   5   -448.1816852 -0.149208E-06  0.133E-04    0.90      44.8  T
   6   -448.1816853 -0.184577E-07  0.441E-05    0.90     135.0  T
     SCC iter.                  ...        0 min,  1.680 sec
     gradient                   ...        0 min,  0.759 sec
 * total energy  :  -440.9981166 Eh     change       -0.2899020E-02 Eh
   gradient norm :     0.0033514 Eh/α   predicted    -0.2726381E-02 (  -5.96%)
   displ. norm   :     0.8642327 α      lambda       -0.2696281E-02
   maximum displ.:     0.5896389 α      in ANC's #19, #37, #28, ...

........................................................................
.............................. CYCLE   40 ..............................
........................................................................
   1   -448.1937430 -0.448194E+03  0.233E-03    0.90       0.0  T
   2   -448.1937436 -0.530641E-06  0.138E-03    0.90       4.3  T
   3   -448.1937441 -0.580402E-06  0.838E-04    0.90       7.1  T
   4   -448.1937442 -0.467363E-07  0.496E-04    0.90      12.0  T
   5   -448.1937443 -0.143168E-06  0.124E-04    0.90      48.0  T
   6   -448.1937443 -0.159908E-07  0.421E-05    0.90     141.4  T
     SCC iter.                  ...        0 min,  1.682 sec
     gradient                   ...        0 min,  0.758 sec
 * total energy  :  -441.0006823 Eh     change       -0.2565762E-02 Eh
   gradient norm :     0.0031003 Eh/α   predicted    -0.2355072E-02 (  -8.21%)
   displ. norm   :     0.8350834 α      lambda       -0.2374971E-02
   maximum displ.:     0.5776290 α      in ANC's #19, #37, #28, ...

........................................................................
.............................. CYCLE   41 ..............................
........................................................................
   1   -448.2048288 -0.448205E+03  0.221E-03    0.89       0.0  T
   2   -448.2048293 -0.494712E-06  0.131E-03    0.89       4.5  T
   3   -448.2048299 -0.536419E-06  0.779E-04    0.89       7.6  T
   4   -448.2048299 -0.390447E-07  0.459E-04    0.89      13.0  T
   5   -448.2048300 -0.117665E-06  0.115E-04    0.89      51.6  T
   6   -448.2048300 -0.137592E-07  0.381E-05    0.89     156.3  T
     SCC iter.                  ...        0 min,  1.684 sec
     gradient                   ...        0 min,  0.759 sec
 * total energy  :  -441.0029406 Eh     change       -0.2258272E-02 Eh
   gradient norm :     0.0029164 Eh/α   predicted    -0.2015598E-02 ( -10.75%)
   displ. norm   :     0.8024162 α      lambda       -0.2083365E-02
   maximum displ.:     0.5621098 α      in ANC's #19, #37, #28, ...

........................................................................
.............................. CYCLE   42 ..............................
........................................................................
   1   -448.2152136 -0.448215E+03  0.207E-03    0.89       0.0  T
   2   -448.2152140 -0.441257E-06  0.122E-03    0.89       4.9  T
   3   -448.2152145 -0.467825E-06  0.727E-04    0.89       8.2  T
   4   -448.2152145 -0.354787E-07  0.428E-04    0.89      13.9  T
   5   -448.2152146 -0.102537E-06  0.105E-04    0.89      56.9  T
   6   -448.2152146 -0.110743E-07  0.341E-05    0.89     174.5  T
     SCC iter.                  ...        0 min,  1.680 sec
     gradient                   ...        0 min,  0.765 sec
 * total energy  :  -441.0049221 Eh     change       -0.1981511E-02 Eh
   gradient norm :     0.0028135 Eh/α   predicted    -0.1712395E-02 ( -13.58%)
   displ. norm   :     0.7668459 α      lambda       -0.1825197E-02
   maximum displ.:     0.5433502 α      in ANC's #19, #37, #22, ...
 * RMSD in coord.:     1.0951841 α      energy gain  -0.1169099E+00 Eh

generating ANC from model Hessian ...
Using Lindh-Hessian (1995)
 Shifting diagonal of input Hessian by    1.0011751414610569E-002
 Lowest  eigenvalues of input Hessian
    0.010000    0.010002    0.010004    0.010006    0.010006    0.010008
    0.010009    0.010010    0.000000    0.000000    0.000000    0.000000
    0.000000    0.000000    0.010014    0.010034    0.010042    0.010058
 Highest eigenvalues
    2.302979    2.312300    2.313611    2.808466    2.821063    2.823768


........................................................................
.............................. CYCLE   43 ..............................
........................................................................
   1   -448.2245569 -0.448225E+03  0.191E-03    0.89       0.0  T
   2   -448.2245573 -0.387506E-06  0.114E-03    0.89       5.2  T
   3   -448.2245577 -0.411226E-06  0.661E-04    0.89       9.0  T
   4   -448.2245577 -0.298043E-07  0.387E-04    0.89      15.4  T
   5   -448.2245578 -0.809176E-07  0.945E-05    0.89      63.0  T
   6   -448.2245578 -0.897609E-08  0.291E-05    0.89     204.8  T
     SCC iter.                  ...        0 min,  1.670 sec
     gradient                   ...        0 min,  0.765 sec
 * total energy  :  -441.0066598 Eh     change       -0.1737715E-02 Eh
   gradient norm :     0.0026678 Eh/α   predicted     0.0000000E+00 (-100.00%)
   displ. norm   :     0.2233488 α      lambda       -0.5420030E-03
   maximum displ.:     0.2015761 α      in ANC's #19, #18, #22, ...

........................................................................
.............................. CYCLE   44 ..............................
........................................................................
   1   -448.2269568 -0.448227E+03  0.448E-04    0.89       0.0  T
   2   -448.2269568 -0.136457E-07  0.284E-04    0.89      21.0  T
   3   -448.2269568 -0.167466E-07  0.167E-04    0.89      35.6  T
   4   -448.2269568 -0.364230E-08  0.108E-04    0.89      55.4  T
     SCC iter.                  ...        0 min,  1.127 sec
     gradient                   ...        0 min,  0.767 sec
 * total energy  :  -441.0071895 Eh     change       -0.5296667E-03 Eh
   gradient norm :     0.0026764 Eh/α   predicted    -0.2846316E-03 ( -46.26%)
   displ. norm   :     0.3621659 α      lambda       -0.8531664E-03
   maximum displ.:     0.2818010 α      in ANC's #19, #18, #22, ...

........................................................................
.............................. CYCLE   45 ..............................
........................................................................
   1   -448.2308822 -0.448231E+03  0.802E-04    0.89       0.0  T
   2   -448.2308822 -0.424990E-07  0.504E-04    0.89      11.8  T
   3   -448.2308823 -0.423402E-07  0.309E-04    0.89      19.3  T
   4   -448.2308823 -0.148085E-07  0.194E-04    0.89      30.7  T
   5   -448.2308823 -0.235693E-07  0.532E-05    0.89     112.0  T
     SCC iter.                  ...        0 min,  1.403 sec
     gradient                   ...        0 min,  0.763 sec
 * total energy  :  -441.0080020 Eh     change       -0.8124610E-03 Eh
   gradient norm :     0.0030889 Eh/α   predicted    -0.4825411E-03 ( -40.61%)
   displ. norm   :     0.5358511 α      lambda       -0.1206038E-02
   maximum displ.:     0.3902432 α      in ANC's #19, #18, #22, ...

........................................................................
.............................. CYCLE   46 ..............................
........................................................................
   1   -448.2358422 -0.448236E+03  0.103E-03    0.89       0.0  T
   2   -448.2358424 -0.119149E-06  0.627E-04    0.89       9.5  T
   3   -448.2358425 -0.105194E-06  0.356E-04    0.89      16.7  T
   4   -448.2358425 -0.570469E-08  0.233E-04    0.89      25.6  T
   5   -448.2358425 -0.333649E-07  0.641E-05    0.89      92.9  T
   6   -448.2358425 -0.381129E-08  0.204E-05    0.89     291.4  T
     SCC iter.                  ...        0 min,  1.677 sec
     gradient                   ...        0 min,  0.765 sec
 * total energy  :  -441.0091444 Eh     change       -0.1142482E-02 Eh
   gradient norm :     0.0032238 Eh/α   predicted    -0.7761693E-03 ( -32.06%)
   displ. norm   :     0.6552743 α      lambda       -0.1410587E-02
   maximum displ.:     0.4645484 α      in ANC's #19, #18, #22, ...

........................................................................
.............................. CYCLE   47 ..............................
........................................................................
   1   -448.2408622 -0.448241E+03  0.123E-03    0.89       0.0  T
   2   -448.2408624 -0.182942E-06  0.723E-04    0.89       8.2  T
   3   -448.2408625 -0.133864E-06  0.427E-04    0.89      13.9  T
   4   -448.2408625 -0.773923E-08  0.269E-04    0.89      22.1  T
   5   -448.2408626 -0.500078E-07  0.689E-05    0.89      86.4  T
   6   -448.2408626 -0.376502E-08  0.239E-05    0.89     249.3  T
     SCC iter.                  ...        0 min,  1.680 sec
     gradient                   ...        0 min,  0.769 sec
 * total energy  :  -441.0104848 Eh     change       -0.1340339E-02 Eh
   gradient norm :     0.0027036 Eh/α   predicted    -0.1008137E-02 ( -24.78%)
   displ. norm   :     0.7085781 α      lambda       -0.1410667E-02
   maximum displ.:     0.5017174 α      in ANC's #19, #18, #22, ...

........................................................................
.............................. CYCLE   48 ..............................
........................................................................
   1   -448.2463173 -0.448246E+03  0.120E-03    0.89       0.0  T
   2   -448.2463175 -0.141329E-06  0.690E-04    0.89       8.6  T
   3   -448.2463176 -0.118385E-06  0.422E-04    0.89      14.1  T
   4   -448.2463176 -0.264601E-07  0.262E-04    0.89      22.7  T
   5   -448.2463177 -0.409350E-07  0.609E-05    0.89      97.8  T
   6   -448.2463177 -0.292778E-08  0.200E-05    0.89     297.6  T
     SCC iter.                  ...        0 min,  1.686 sec
     gradient                   ...        0 min,  0.769 sec
 * total energy  :  -441.0118254 Eh     change       -0.1340566E-02 Eh
   gradient norm :     0.0029755 Eh/α   predicted    -0.1059472E-02 ( -20.97%)
   displ. norm   :     0.7158879 α      lambda       -0.1412626E-02
   maximum displ.:     0.5056140 α      in ANC's #19, #18, #22, ...

........................................................................
.............................. CYCLE   49 ..............................
........................................................................
   1   -448.2515892 -0.448252E+03  0.112E-03    0.89       0.0  T
   2   -448.2515893 -0.123151E-06  0.656E-04    0.89       9.1  T
   3   -448.2515894 -0.130125E-06  0.369E-04    0.89      16.1  T
   4   -448.2515894 -0.198226E-07  0.250E-04    0.89      23.8  T
   5   -448.2515895 -0.345070E-07  0.572E-05    0.89     104.2  T
   6   -448.2515895 -0.241948E-08  0.196E-05    0.89     304.4  T
     SCC iter.                  ...        0 min,  1.680 sec
     gradient                   ...        0 min,  0.766 sec
 * total energy  :  -441.0130528 Eh     change       -0.1227478E-02 Eh
   gradient norm :     0.0043326 Eh/α   predicted    -0.1068298E-02 ( -12.97%)
   displ. norm   :     0.6718496 α      lambda       -0.1285438E-02
   maximum displ.:     0.4776148 α      in ANC's #19, #18, #22, ...

........................................................................
.............................. CYCLE   50 ..............................
........................................................................
   1   -448.2571227 -0.448257E+03  0.114E-03    0.89       0.0  T
   2   -448.2571228 -0.727350E-07  0.675E-04    0.89       8.8  T
   3   -448.2571228 -0.547440E-07  0.446E-04    0.89      13.4  T
   4   -448.2571229 -0.537329E-07  0.244E-04    0.89      24.4  T
   5   -448.2571229 -0.332972E-07  0.617E-05    0.89      96.5  T
   6   -448.2571229 -0.324485E-08  0.183E-05    0.89     325.5  T
     SCC iter.                  ...        0 min,  1.688 sec
     gradient                   ...        0 min,  0.770 sec
 * total energy  :  -441.0142579 Eh     change       -0.1205058E-02 Eh
   gradient norm :     0.0029004 Eh/α   predicted    -0.9328344E-03 ( -22.59%)
   displ. norm   :     0.6832987 α      lambda       -0.1178672E-02
   maximum displ.:     0.4894316 α      in ANC's #19, #18, #22, ...

........................................................................
.............................. CYCLE   51 ..............................
........................................................................
   1   -448.2615555 -0.448262E+03  0.103E-03    0.88       0.0  T
   2   -448.2615556 -0.116001E-06  0.687E-04    0.88       8.7  T
   3   -448.2615558 -0.164212E-06  0.338E-04    0.88      17.6  T
   4   -448.2615558  0.388440E-08  0.256E-04    0.88      23.2  T
   5   -448.2615558 -0.419884E-07  0.503E-05    0.88     118.4  T
   6   -448.2615558 -0.121071E-08  0.209E-05    0.88     285.0  T
     SCC iter.                  ...        0 min,  1.681 sec
     gradient                   ...        0 min,  0.766 sec
 * total energy  :  -441.0153766 Eh     change       -0.1118743E-02 Eh
   gradient norm :     0.0023778 Eh/α   predicted    -0.8644943E-03 ( -22.73%)
   displ. norm   :     0.6665956 α      lambda       -0.1059105E-02
   maximum displ.:     0.4784971 α      in ANC's #19, #18, #22, ...

........................................................................
.............................. CYCLE   52 ..............................
........................................................................
   1   -448.2656733 -0.448266E+03  0.898E-04    0.88       0.0  T
   2   -448.2656734 -0.771096E-07  0.576E-04    0.88      10.3  T
   3   -448.2656735 -0.115481E-06  0.304E-04    0.88      19.6  T
   4   -448.2656735 -0.740681E-08  0.219E-04    0.88      27.2  T
   5   -448.2656735 -0.316936E-07  0.432E-05    0.88     137.8  T
   6   -448.2656735 -0.720661E-09  0.192E-05    0.88     310.3  T
     SCC iter.                  ...        0 min,  1.686 sec
     gradient                   ...        0 min,  0.770 sec
 * total energy  :  -441.0164019 Eh     change       -0.1025283E-02 Eh
   gradient norm :     0.0024016 Eh/α   predicted    -0.7648655E-03 ( -25.40%)
   displ. norm   :     0.6500871 α      lambda       -0.9903883E-03
   maximum displ.:     0.4682345 α      in ANC's #19, #18, #22, ...

........................................................................
.............................. CYCLE   53 ..............................
........................................................................
   1   -448.2695877 -0.448270E+03  0.816E-04    0.88       0.0  T
   2   -448.2695877 -0.443158E-07  0.511E-04    0.88      11.6  T
   3   -448.2695878 -0.770301E-07  0.298E-04    0.88      20.0  T
   4   -448.2695878 -0.215173E-07  0.195E-04    0.88      30.6  T
   5   -448.2695879 -0.250041E-07  0.404E-05    0.88     147.3  T
     SCC iter.                  ...        0 min,  1.399 sec
     gradient                   ...        0 min,  0.771 sec
 * total energy  :  -441.0173622 Eh     change       -0.9602894E-03 Eh
   gradient norm :     0.0021050 Eh/α   predicted    -0.7044750E-03 ( -26.64%)
   displ. norm   :     0.6418510 α      lambda       -0.9345102E-03
   maximum displ.:     0.4651696 α      in ANC's #19, #18, #22, ...

........................................................................
.............................. CYCLE   54 ..............................
........................................................................
   1   -448.2730936 -0.448273E+03  0.763E-04    0.88       0.0  T
   2   -448.2730936 -0.475536E-07  0.469E-04    0.88      12.7  T
   3   -448.2730937 -0.606941E-07  0.268E-04    0.88      22.3  T
   4   -448.2730937 -0.155156E-07  0.180E-04    0.88      33.1  T
   5   -448.2730937 -0.217608E-07  0.390E-05    0.88     152.6  T
     SCC iter.                  ...        0 min,  1.404 sec
     gradient                   ...        0 min,  0.769 sec
 * total energy  :  -441.0182682 Eh     change       -0.9059785E-03 Eh
   gradient norm :     0.0018445 Eh/α   predicted    -0.6597544E-03 ( -27.18%)
   displ. norm   :     0.9485806 α      lambda       -0.8781303E-03
   maximum displ.:     0.6919032 α      in ANC's #19, #18, #22, ...

........................................................................
.............................. CYCLE   55 ..............................
........................................................................
   1   -448.2775588 -0.448278E+03  0.106E-03    0.88       0.0  T
   2   -448.2775589 -0.940056E-07  0.627E-04    0.88       9.5  T
   3   -448.2775590 -0.845395E-07  0.367E-04    0.88      16.2  T
   4   -448.2775590 -0.332797E-07  0.245E-04    0.88      24.3  T
   5   -448.2775590 -0.423479E-07  0.565E-05    0.88     105.4  T
   6   -448.2775590 -0.106820E-08  0.256E-05    0.88     232.4  T
     SCC iter.                  ...        0 min,  1.677 sec
     gradient                   ...        0 min,  0.764 sec
 * total energy  :  -441.0195260 Eh     change       -0.1257779E-02 Eh
   gradient norm :     0.0017569 Eh/α   predicted    -0.6146541E-03 ( -51.13%)
   displ. norm   :     0.9061479 α      lambda       -0.7792343E-03
   maximum displ.:     0.6671331 α      in ANC's #19, #18, #22, ...

........................................................................
.............................. CYCLE   56 ..............................
........................................................................
   1   -448.2816298 -0.448282E+03  0.957E-04    0.88       0.0  T
   2   -448.2816299 -0.783246E-07  0.553E-04    0.88      10.8  T
   3   -448.2816299 -0.507175E-07  0.326E-04    0.88      18.3  T
   4   -448.2816300 -0.271142E-07  0.220E-04    0.88      27.1  T
   5   -448.2816300 -0.361275E-07  0.519E-05    0.88     114.8  T
   6   -448.2816300 -0.716852E-09  0.236E-05    0.88     252.3  T
     SCC iter.                  ...        0 min,  1.676 sec
     gradient                   ...        0 min,  0.772 sec
 * total energy  :  -441.0206422 Eh     change       -0.1116241E-02 Eh
   gradient norm :     0.0016803 Eh/α   predicted    -0.5318057E-03 ( -52.36%)
   displ. norm   :     0.8702927 α      lambda       -0.6949512E-03
   maximum displ.:     0.6460374 α      in ANC's #19, #18, #22, ...

........................................................................
.............................. CYCLE   57 ..............................
........................................................................
   1   -448.2852600 -0.448285E+03  0.895E-04    0.88       0.0  T
   2   -448.2852601 -0.594462E-07  0.525E-04    0.88      11.4  T
   3   -448.2852601 -0.432690E-07  0.312E-04    0.88      19.1  T
   4   -448.2852601 -0.324188E-07  0.207E-04    0.88      28.7  T
[...]
    28   6 C       29   6 C                                       1.4390603
    29   6 C       30   6 C                                       1.3566095
     2   6 C       31   6 C                                       1.3898578
    30   6 C       31   6 C                                       1.4361262
    28   6 C       32   7 N                                       1.3644598
    31   6 C       32   7 N                                       1.3654598
    15   6 C       33   7 N                                       1.3598896
    18   6 C       33   7 N                                       1.3697378
    34   6 C       35   6 C                                       1.3944838
    35   6 C       36   6 C                                       1.3902601
    36   6 C       38   6 C                                       1.3922388
    38   6 C       39   6 C                                       1.3911930
    34   6 C       41   6 C                                       1.3937275
    39   6 C       41   6 C                                       1.3911732
     2   6 C       42   1 H                                       1.0857259
     4   6 C       43   1 H                                       1.0788970
     5   6 C       44   1 H                                       1.0783482
    10   6 C       45   1 H                                       1.0781897
    11   6 C       46   1 H                                       1.0784888
    16   6 C       47   1 H                                       1.0785078
    17   6 C       48   1 H                                       1.0781568
    21   6 C       49   1 H                                       1.0846522
    23   6 C       50   1 H                                       1.0898453
    23   6 C       51   1 H                                       1.0919178
    23   6 C       52   1 H                                       1.0911058
    24   6 C       53   1 H                                       1.0852284
    26   6 C       54   1 H                                       1.0898546
    26   6 C       55   1 H                                       1.0911185
    26   6 C       56   1 H                                       1.0919489
    27   6 C       57   1 H                                       1.0845732
    29   6 C       58   1 H                                       1.0783205
    30   6 C       59   1 H                                       1.0789122
    35   6 C       60   1 H                                       1.0845990
    37   6 C       61   1 H                                       1.0905157
    37   6 C       62   1 H                                       1.0900349
    37   6 C       63   1 H                                       1.0924026
    38   6 C       64   1 H                                       1.0852393
    40   6 C       65   1 H                                       1.0924888
    40   6 C       66   1 H                                       1.0901661
    40   6 C       67   1 H                                       1.0902653
    41   6 C       68   1 H                                       1.0846076
    70   6 C       71   6 C                                       1.3898446
    71   6 C       72   6 C                                       1.4362721
    72   6 C       73   6 C                                       1.3565541
    73   6 C       74   6 C                                       1.4391151
    71   6 C       75   7 N                                       1.3653861
    74   6 C       75   7 N                                       1.3644931
    74   6 C       76   6 C                                       1.3998759
    76   6 C       77   6 C                                       1.3989993
    77   6 C       78   6 C                                       1.4371495
    78   6 C       79   6 C                                       1.3572935
    77   6 C       80   7 N                                       1.3691660
    79   6 C       81   6 C                                       1.4338473
    80   7 N       81   6 C                                       1.3605865
    81   6 C       82   6 C                                       1.4081370
    82   6 C       83   6 C                                       1.4079641
    83   6 C       84   6 C                                       1.4337520
    84   6 C       85   6 C                                       1.3574015
    85   6 C       86   6 C                                       1.4371416
    86   6 C       87   6 C                                       1.3991644
    88   6 C       89   6 C                                       1.3927339
    89   6 C       90   6 C                                       1.3926404
    90   6 C       92   6 C                                       1.3897002
    92   6 C       93   6 C                                       1.3936257
    88   6 C       95   6 C                                       1.3957815
    93   6 C       95   6 C                                       1.3889364
    87   6 C       96   6 C                                       1.3998940
    96   6 C       97   6 C                                       1.4391535 (max)
    97   6 C       98   6 C                                       1.3565532
    70   6 C       99   6 C                                       1.3898469
    98   6 C       99   6 C                                       1.4362489
    96   6 C      100   7 N                                       1.3645567
    99   6 C      100   7 N                                       1.3653948
    83   6 C      101   7 N                                       1.3606722
    86   6 C      101   7 N                                       1.3690228
   102   6 C      103   6 C                                       1.3943767
   103   6 C      104   6 C                                       1.3904420
   104   6 C      106   6 C                                       1.3920610
   106   6 C      107   6 C                                       1.3912757
   102   6 C      109   6 C                                       1.3939366
   107   6 C      109   6 C                                       1.3910925
    70   6 C      110   1 H                                       1.0857384
    72   6 C      111   1 H                                       1.0789044
    73   6 C      112   1 H                                       1.0783524
    78   6 C      113   1 H                                       1.0781672
    79   6 C      114   1 H                                       1.0784623
    84   6 C      115   1 H                                       1.0784805
    85   6 C      116   1 H                                       1.0781564
    89   6 C      117   1 H                                       1.0845482
    91   6 C      118   1 H                                       1.0898502
    91   6 C      119   1 H                                       1.0918655
    91   6 C      120   1 H                                       1.0912244
    92   6 C      121   1 H                                       1.0852484
    94   6 C      122   1 H                                       1.0898787
    94   6 C      123   1 H                                       1.0910974
    94   6 C      124   1 H                                       1.0919486
    95   6 C      125   1 H                                       1.0844701
    97   6 C      126   1 H                                       1.0783245
    98   6 C      127   1 H                                       1.0789140
   103   6 C      128   1 H                                       1.0845826
   105   6 C      129   1 H                                       1.0904842
   105   6 C      130   1 H                                       1.0900488
   105   6 C      131   1 H                                       1.0924269
   106   6 C      132   1 H                                       1.0852354
   108   6 C      133   1 H                                       1.0924817
   108   6 C      134   1 H                                       1.0902122
   108   6 C      135   1 H                                       1.0902682
   109   6 C      136   1 H                                       1.0845956
   137   6 C      138   6 C                                       1.2223159
   139   6 C      140   6 C                                       1.2224211
   141   6 C      142   6 C                                       1.2226972
   143   6 C      144   6 C                                       1.2226809
   145   6 C      146   6 C                                       1.2213719
   147   6 C      148   6 C                                       1.2212113
   150   6 C      151   6 C                                       1.4098707
   151   6 C      152   6 C                                       1.4328083
   152   6 C      153   6 C                                       1.3580030
   153   6 C      154   6 C                                       1.4359795
   151   6 C      155   7 N                                       1.3598321
   154   6 C      155   7 N                                       1.3694458
   154   6 C      156   6 C                                       1.3992131
   156   6 C      157   6 C                                       1.3989340
   157   6 C      158   6 C                                       1.4359598
   158   6 C      159   6 C                                       1.3580540
   157   6 C      160   7 N                                       1.3697797
   159   6 C      161   6 C                                       1.4327720
   160   7 N      161   6 C                                       1.3596142
   161   6 C      162   6 C                                       1.4100694
   162   6 C      163   6 C                                       1.4100954
   163   6 C      164   6 C                                       1.4328402
   164   6 C      165   6 C                                       1.3580241
   165   6 C      166   6 C                                       1.4359297
   166   6 C      167   6 C                                       1.3987987
   168   6 C      169   6 C                                       1.3934081
   169   6 C      170   6 C                                       1.3915522
   170   6 C      172   6 C                                       1.3906854
   172   6 C      173   6 C                                       1.3927830
   168   6 C      175   6 C                                       1.3948603
   173   6 C      175   6 C                                       1.3897914
   167   6 C      176   6 C                                       1.3990257
   176   6 C      177   6 C                                       1.4359799
   177   6 C      178   6 C                                       1.3580482
   150   6 C      179   6 C                                       1.4096331
   178   6 C      179   6 C                                       1.4328311
   176   6 C      180   7 N                                       1.3693939
   179   6 C      180   7 N                                       1.3598251
   163   6 C      181   7 N                                       1.3596112
   166   6 C      181   7 N                                       1.3697391
   182   6 C      183   6 C                                       1.3937463
   183   6 C      184   6 C                                       1.3912933
   184   6 C      186   6 C                                       1.3911875
   186   6 C      187   6 C                                       1.3921757
   182   6 C      189   6 C                                       1.3946688
   187   6 C      189   6 C                                       1.3902136
   152   6 C      190   1 H                                       1.0784514
   153   6 C      191   1 H                                       1.0781290
   158   6 C      192   1 H                                       1.0781349
   159   6 C      193   1 H                                       1.0784710
   164   6 C      194   1 H                                       1.0784645
   165   6 C      195   1 H                                       1.0781451
   169   6 C      196   1 H                                       1.0846027
   171   6 C      197   1 H                                       1.0900889
   171   6 C      198   1 H                                       1.0924509
   171   6 C      199   1 H                                       1.0903863
   172   6 C      200   1 H                                       1.0852443
   174   6 C      201   1 H                                       1.0898919
   174   6 C      202   1 H                                       1.0908191
   174   6 C      203   1 H                                       1.0922022
   175   6 C      204   1 H                                       1.0845677
   177   6 C      205   1 H                                       1.0781557
   178   6 C      206   1 H                                       1.0784719
   183   6 C      207   1 H                                       1.0845968
   185   6 C      208   1 H                                       1.0901387
   185   6 C      209   1 H                                       1.0924820
   185   6 C      210   1 H                                       1.0903094
   186   6 C      211   1 H                                       1.0852328
   188   6 C      212   1 H                                       1.0904059
   188   6 C      213   1 H                                       1.0900853
   188   6 C      214   1 H                                       1.0924397
   189   6 C      215   1 H                                       1.0845947
   217   6 C      218   6 C                                       1.4098750
   218   6 C      219   6 C                                       1.4329043
   219   6 C      220   6 C                                       1.3579363
   220   6 C      221   6 C                                       1.4361072
   218   6 C      222   7 N                                       1.3596586
   221   6 C      222   7 N                                       1.3695563
   221   6 C      223   6 C                                       1.3987094
   223   6 C      224   6 C                                       1.3991039
   224   6 C      225   6 C                                       1.4362954
   225   6 C      226   6 C                                       1.3576665
   224   6 C      227   7 N                                       1.3689787
   226   6 C      228   6 C                                       1.4332581
   227   7 N      228   6 C                                       1.3605635
   228   6 C      229   6 C                                       1.4083844
   229   6 C      230   6 C                                       1.4081498
   230   6 C      231   6 C                                       1.4332297
   231   6 C      232   6 C                                       1.3577459
   232   6 C      233   6 C                                       1.4363531
   233   6 C      234   6 C                                       1.3991450
   235   6 C      236   6 C                                       1.3937038
   236   6 C      237   6 C                                       1.3912406
   237   6 C      239   6 C                                       1.3910727
   239   6 C      240   6 C                                       1.3922983
   235   6 C      242   6 C                                       1.3944850
   240   6 C      242   6 C                                       1.3902651
   234   6 C      243   6 C                                       1.3988193
   243   6 C      244   6 C                                       1.4361462
   244   6 C      245   6 C                                       1.3579162
   217   6 C      246   6 C                                       1.4099333
   245   6 C      246   6 C                                       1.4328730
   243   6 C      247   7 N                                       1.3695794
   246   6 C      247   7 N                                       1.3597086
   230   6 C      248   7 N                                       1.3606033
   233   6 C      248   7 N                                       1.3689442
   249   6 C      250   6 C                                       1.3939247
   250   6 C      251   6 C                                       1.3908971
   251   6 C      253   6 C                                       1.3915380
   253   6 C      254   6 C                                       1.3918404
   249   6 C      256   6 C                                       1.3942171
   254   6 C      256   6 C                                       1.3906032
   219   6 C      257   1 H                                       1.0784693
   220   6 C      258   1 H                                       1.0781408
   225   6 C      259   1 H                                       1.0781282 (min)
   226   6 C      260   1 H                                       1.0784315
   231   6 C      261   1 H                                       1.0784779
   232   6 C      262   1 H                                       1.0781582
   236   6 C      263   1 H                                       1.0846034
   238   6 C      264   1 H                                       1.0901005
   238   6 C      265   1 H                                       1.0924449
   238   6 C      266   1 H                                       1.0903762
   239   6 C      267   1 H                                       1.0852271
   241   6 C      268   1 H                                       1.0900418
   241   6 C      269   1 H                                       1.0904447
   241   6 C      270   1 H                                       1.0924319
   242   6 C      271   1 H                                       1.0845836
   244   6 C      272   1 H                                       1.0781294
   245   6 C      273   1 H                                       1.0784642
   250   6 C      274   1 H                                       1.0845919
   252   6 C      275   1 H                                       1.0902015
   252   6 C      276   1 H                                       1.0924972
   252   6 C      277   1 H                                       1.0902141
   253   6 C      278   1 H                                       1.0852241
   255   6 C      279   1 H                                       1.0902976
   255   6 C      280   1 H                                       1.0901581
   255   6 C      281   1 H                                       1.0924738
   256   6 C      282   1 H                                       1.0845961

 * 3 distinct bonds (by element types)

   Z      Z             #   av. dist./Å        max./Å        min./Å
   1 H    6 C         106     1.0856788     1.0924972     1.0781282
   6 C    6 C         134     1.3930731     1.4391535     1.2212113
   6 C    7 N          32     1.3647806     1.3697797     1.3596112


optimized geometry written to: xtbopt.xyz


           -------------------------------------------------
          | TOTAL ENERGY             -441.030319662252 Eh   |
          | GRADIENT NORM               0.000533370846 Eh/α |
          | HOMO-LUMO GAP               0.871065639738 eV   |
           -------------------------------------------------

------------------------------------------------------------------------
 * finished run on 2022/07/30 at 09:42:54.923     
------------------------------------------------------------------------
 total:
 * wall-time:     0 d,  0 h,  6 min,  0.679 sec
 *  cpu-time:     0 d,  0 h,  5 min, 59.037 sec
 * ratio c/w:     0.995 speedup
 SCF:
 * wall-time:     0 d,  0 h,  0 min, 12.536 sec
 *  cpu-time:     0 d,  0 h,  0 min, 12.477 sec
 * ratio c/w:     0.995 speedup
 ANC optimizer:
 * wall-time:     0 d,  0 h,  5 min, 47.838 sec
 *  cpu-time:     0 d,  0 h,  5 min, 46.261 sec
 * ratio c/w:     0.995 speedup

