282
 energy: -440.101938015595 gnorm: 0.764770111340 xtb: 6.5.1 (b24c23e)
Zn          44.63646599999999       -0.02519300000000       -0.02677100000000
C           41.27777699999999        0.17806800000000       -0.26208100000000
C           41.94209700000000        1.27890400000000        0.09939400000000
C           41.29244800000000        2.52239300000000        0.49684000000000
C           42.23516200000000        3.39823200000000        0.78699200000000
C           43.54088399999999        2.75746500000000        0.57968100000000
N           43.36171800000000        1.40890800000000        0.14660800000000
C           44.73605600000000        3.35297300000000        0.76595400000000
C           46.03137300000000        2.66151100000000        0.53813200000000
C           47.32814300000000        3.34815400000000        0.53902900000000
C           48.26132600000000        2.44518600000000        0.32196200000000
N           46.16424300000000        1.38726300000000        0.32618700000000
C           47.56770000000000        1.17018300000000        0.17867000000000
C           48.15928900000000       -0.01992900000000       -0.02031800000000
C           47.40072100000000       -1.28640300000000       -0.16142700000000
C           47.95790899999999       -2.49092800000000       -0.14511200000000
C           46.91067300000000       -3.45651100000000       -0.40508700000000
C           45.77650500000000       -2.78218000000000       -0.55989000000000
C           44.47455200000000       -3.40672900000000       -0.91852300000000
C           44.44948600000000       -4.84852300000000       -1.25308800000000
C           44.38300900000000       -5.26157500000000       -2.59134800000000
C           44.37836700000000       -6.62748500000000       -2.91085200000000
C           44.27258499999999       -7.06735500000000       -4.34117900000000
C           44.40617300000000       -7.57952200000000       -1.87989800000000
C           44.46323599999999       -7.17443000000000       -0.53805700000000
C           44.52998100000000       -8.20501700000000        0.55047400000000
C           44.49477399999999       -5.80603400000000       -0.22958600000000
C           43.32140700000000       -2.71233000000000       -0.93238100000000
C           42.00073699999999       -3.25277100000000       -1.25090300000000
C           41.14548300000000       -2.26826600000000       -1.06146600000000
C           41.90916600000000       -1.10032700000000       -0.62586000000000
N           43.17938500000000       -1.34731900000000       -0.54669200000000
N           45.99672400000000       -1.37696500000000       -0.41290700000000
C           44.78558799999999        4.76323800000000        1.21065400000000
C           44.47010499999999        5.79872900000000        0.31887400000000
C           44.51309100000000        7.13500400000000        0.74216200000000
C           44.19294600000000        8.24402000000000       -0.21638000000000
C           44.91372700000000        7.43311500000000        2.05318900000000
C           45.25475500000000        6.40455800000000        2.94423500000000
C           45.63708599999999        6.72532800000000        4.35889600000000
C           45.17363900000000        5.06967100000000        2.52221700000000
H           40.19482699999999        0.21504700000000       -0.28036000000000
H           40.22783299999999        2.70894600000000        0.55621700000000
H           42.04922899999999        4.41091700000000        1.11962200000000
H           47.50806699999999        4.40506300000000        0.68549200000000
H           49.32356400000000        2.64270000000000        0.26722000000000
H           49.00354800000000       -2.72239100000000        0.00507200000000
H           47.04623500000000       -4.52619700000000       -0.49153100000000
H           44.33892400000000       -4.52016700000000       -3.38115400000000
H           44.77508400000000       -8.04711800000000       -4.48873600000000
H           43.20226400000000       -7.16381000000000       -4.61870400000000
H           44.75710900000000       -6.32870000000000       -5.01531000000000
H           44.38503699999999       -8.63598700000000       -2.12139300000000
H           44.36141800000000       -7.74979700000000        1.55079000000000
H           43.75121200000000       -8.97995300000000        0.38699700000000
H           45.52916000000000       -8.68905700000000        0.54129800000000
H           44.55154100000000       -5.48231800000000        0.80383500000000
H           41.74688700000000       -4.25612500000000       -1.56600100000000
H           40.07388300000000       -2.32977800000000       -1.19863400000000
H           44.18607900000000        5.56322500000000       -0.70016000000000
H           43.70404300000000        9.08787300000000        0.31565200000000
H           43.50175500000000        7.89213200000000       -1.01132400000000
H           45.13022700000000        8.60768600000000       -0.68631600000000
H           44.95954300000000        8.46593100000000        2.37926700000000
H           44.72762500000000        6.73255900000000        4.99390800000000
H           46.12721500000000        7.72021600000000        4.41744600000000
H           46.34840900000000        5.96812200000000        4.75370800000000
H           45.41570200000000        4.26872700000000        3.21113000000000
Zn          88.57815700000000       -0.01226500000000       -0.01705800000000
C           91.93684500000001        0.15716400000000       -0.27778600000000
C           91.27252600000000       -0.49645700000000       -1.23449200000000
C           91.92217499999998       -1.22433500000000       -2.31819900000000
C           90.97945999999999       -1.74682100000000       -3.07865300000000
C           89.67373900000000       -1.36933700000000       -2.52092000000000
N           89.85290499999999       -0.57799200000000       -1.34621500000000
C           88.47856700000000       -1.71401500000000       -3.04103900000000
C           87.18325000000000       -1.30272100000000       -2.44032500000000
C           85.88648000000001       -1.49471800000000       -3.09957800000000
C           84.95329599999999       -1.03487700000000       -2.29272300000000
N           87.05038000000000       -0.74444800000000       -1.27543700000000
C           85.64692300000000       -0.54233500000000       -1.10800000000000
C           85.05533399999999       -0.01992900000000       -0.02031800000000
C           85.81390200000000        0.46814300000000        1.15682100000000
C           85.25671300000000        0.78776800000000        2.31827900000000
C           86.30394900000000        1.30625100000000        3.17333100000000
C           87.43811800000000        1.26722600000000        2.48256100000000
C           88.74007099999999        1.78553600000000        2.98259500000000
C           88.76513700000000        2.50822000000000        4.27427300000000
C           88.83161399999999        3.90856500000000        4.29847700000000
C           88.83625499999999        4.59566000000000        5.52146200000000
C           88.94203700000000        6.09189800000000        5.54579700000000
C           88.80844899999998        3.87046500000000        6.72285100000000
C           88.75138599999998        2.46889700000000        6.70728900000000
C           88.68464099999998        1.71026600000000        8.00015000000000
C           88.71984800000000        1.79170700000000        5.47884400000000
C           89.89321500000000        1.60555100000000        2.31178400000000
C           91.21388600000000        2.06192300000000        2.74219900000000
C           92.06913900000001        1.60592300000000        1.84933900000000
C           91.30545699999999        0.86242300000000        0.84881800000000
N           90.03523800000001        0.85513800000000        1.10808500000000
N           87.21789900000000        0.73489300000000        1.17380100000000
C           88.42903400000000       -2.53370500000000       -4.27177600000000
C           88.74451699999999       -1.96541400000000       -5.51457900000000
C           88.70153200000000       -2.74394100000000       -6.68021200000000
C           89.02167599999999       -2.13199400000000       -8.01221800000000
C           88.30089599999999       -4.08613500000000       -6.60159900000000
C           87.95986800000000       -4.65565000000000       -5.36566000000000
C           87.57753599999998       -6.10368900000000       -5.27996300000000
C           88.04098299999998       -3.87872900000000       -4.20100800000000
H           93.01979599999999        0.16442700000000       -0.31839200000000
H           92.98678900000000       -1.33329400000000       -2.48085000000000
H           91.16539400000001       -2.34819800000000       -3.95872100000000
H           85.70655499999999       -1.92959700000000       -4.07394400000000
H           83.89105800000000       -1.03728000000000       -2.49766800000000
H           84.21107400000000        0.70795100000000        2.58240000000000
H           86.16838700000000        1.68703900000000        4.17667600000000
H           88.87569800000000        4.46077400000000        3.36652000000000
H           88.43953800000000        6.50635300000000        6.44576100000000
H           90.01235800000001        6.38530400000000        5.56118700000000
H           88.45751300000001        6.53377000000000        4.64868300000000
H           88.82958600000001        4.39649600000000        7.67033600000000
H           88.85320399999999        0.62277000000000        7.84137300000000
H           89.46341099999999        2.08299600000000        8.69895100000000
H           87.68546299999998        1.85381800000000        8.46250400000000
H           88.66308099999999        0.70902000000000        5.45559000000000
H           91.46773600000000        2.64386400000000        3.61818500000000
H           93.14073900000000        1.75479300000000        1.87023700000000
H           89.02854300000000       -0.92110100000000       -5.57204500000000
H           89.51057900000001       -2.87789600000000       -8.67462100000000
H           89.71286800000000       -1.27051800000000       -7.89552100000000
H           88.08439600000000       -1.78186400000000       -8.49232300000000
H           88.25507899999998       -4.68682200000000       -7.50282500000000
H           88.48699800000000       -6.71561600000000       -5.11014400000000
H           87.08740800000000       -6.43686500000000       -6.21923000000000
H           86.86621399999999       -6.27211800000000       -4.44278300000000
H           87.79892100000001       -4.31746100000000       -3.23995200000000
C           51.93479700000000       -0.00719700000000       -0.01779300000000
C           50.68252600000000       -0.02637800000000       -0.02214100000000
C           53.24846500000000       -0.00796300000000       -0.01586000000000
C           54.75159800000000       -0.02637800000000       -0.02214100000000
C           65.86808000000001       -0.00719700000000       -0.01779300000000
C           64.61581000000000       -0.02637800000000       -0.02214100000000
C           67.18174900000000       -0.00796300000000       -0.01586000000000
C           68.68488199999999       -0.02637800000000       -0.02214100000000
C           79.80136399999999       -0.00719700000000       -0.01779300000000
C           78.54909399999998       -0.02637800000000       -0.02214100000000
C           81.11503199999999       -0.00796300000000       -0.01586000000000
C           82.61816600000000       -0.02637800000000       -0.02214100000000
Zn          59.53582500000000       -0.07131800000000       -0.03258500000000
C           56.16646300000000        0.02258800000000        0.02260400000000
C           56.82273200000000        1.19350900000000       -0.07606100000000
C           56.18276699999999        2.51055200000000       -0.09096200000000
C           57.11893000000000        3.42414000000000       -0.25254100000000
C           58.41537000000000        2.74571000000000       -0.35261400000000
N           58.23719000000000        1.33246500000000       -0.23150700000000
C           59.59942000000000        3.36562700000000       -0.54299900000000
C           60.89674200000000        2.64300500000000       -0.57818600000000
C           62.16571700000000        3.26019500000000       -0.98538000000000
C           63.11845500000000        2.36370200000000       -0.83058400000000
N           61.06470800000000        1.41539800000000       -0.19639600000000
C           62.46334200000000        1.16225800000000       -0.32965100000000
C           63.07827399999999        0.02258800000000        0.02260400000000
C           62.32709400000000       -1.16136500000000        0.49042600000000
C           62.86159300000000       -2.17377900000000        1.16125400000000
C           61.82917900000000       -3.18154500000000        1.31120500000000
C           60.73555000000000       -2.71693700000000        0.71760600000000
C           59.48257400000000       -3.48953300000000        0.54115600000000
C           59.54590800000000       -4.96910000000000        0.62715700000000
C           58.84823399999999       -5.65374600000000        1.63429300000000
C           58.92391200000000       -7.05084900000000        1.72669300000000
C           58.21383399999999       -7.77025100000000        2.83472200000000
C           59.72929400000000       -7.76132100000000        0.82393900000000
C           60.42450300000000       -7.08731700000000       -0.19096000000000
C           61.30905099999999       -7.85177200000000       -1.13079700000000
C           60.34163100000000       -5.68979500000000       -0.27549600000000
C           58.31066800000000       -2.87714700000000        0.28479800000000
C           57.03585799999999       -3.53701100000000        0.02251600000000
C           56.14759500000000       -2.57449800000000       -0.12038500000000
C           56.84416299999999       -1.29406300000000        0.04335800000000
N           58.10845500000000       -1.46404800000000        0.27721100000000
N           60.95958100000000       -1.41774300000000        0.17348300000000
C           59.63381700000000        4.83654600000000       -0.71599700000000
C           60.22119099999999        5.64532900000000        0.26766000000000
C           60.26964400000000        7.03754600000000        0.10586900000000
C           60.94140200000000        7.89266000000000        1.13943400000000
C           59.75090100000000        7.61661000000000       -1.06230700000000
C           59.15036599999999        6.81698700000000       -2.04643200000000
C           58.62851500000000        7.43964100000000       -3.30679900000000
C           59.10829999999999        5.42551200000000       -1.87600800000000
H           55.12876799999999        2.73018100000000        0.01377400000000
H           56.93363500000000        4.48987100000000       -0.29170000000000
H           62.31502900000000        4.26881300000000       -1.34794500000000
H           64.16805800000000        2.51888600000000       -1.04224300000000
H           63.88548299999999       -2.25693100000000        1.50081400000000
H           61.94566000000000       -4.14951500000000        1.78081200000000
H           58.25434100000000       -5.09717700000000        2.35001100000000
H           57.97497500000000       -8.81431200000000        2.53795500000000
H           58.86184000000000       -7.78938300000000        3.73570600000000
H           57.26094199999999       -7.25756600000000        3.08508800000000
H           59.81666800000000       -8.83817500000000        0.91147800000000
H           61.45789599999999       -7.29219200000000       -2.07949100000000
H           60.85209500000000       -8.83355800000000       -1.37970800000000
H           62.29707200000000       -8.02075700000000       -0.65256800000000
H           60.89481499999999       -5.16092900000000       -1.04281700000000
H           56.83322800000000       -4.59705600000000       -0.05436600000000
H           55.09817300000000       -2.72797300000000       -0.33243500000000
H           60.64201499999999        5.18899500000000        1.15632500000000
H           60.50800600000000        8.91546900000000        1.14570900000000
H           62.02611000000000        7.96064300000000        0.91373500000000
H           60.80806500000000        7.45803500000000        2.15285000000000
H           59.81429100000000        8.68884700000000       -1.20599600000000
H           58.20227200000000        8.44351000000000       -3.09640400000000
H           57.82733400000000        6.81315700000000       -3.75477200000000
H           59.45746499999999        7.54322400000000       -4.03806500000000
H           58.67261599999999        4.79849900000000       -2.64554600000000
Zn          73.46910899999999       -0.07131800000000       -0.03258500000000
C           70.09974699999999        0.02258800000000        0.02260400000000
C           70.75601600000000        1.19350900000000       -0.07606100000000
C           70.11605100000000        2.51055200000000       -0.09096200000000
C           71.05221299999999        3.42414000000000       -0.25254100000000
C           72.34865400000000        2.74571000000000       -0.35261400000000
N           72.17047300000000        1.33246500000000       -0.23150700000000
C           73.53270400000000        3.36562700000000       -0.54299900000000
C           74.83002600000000        2.64300500000000       -0.57818600000000
C           76.09900099999999        3.26019500000000       -0.98538000000000
C           77.05173799999999        2.36370200000000       -0.83058400000000
N           74.99799100000000        1.41539800000000       -0.19639600000000
C           76.39662599999998        1.16225800000000       -0.32965100000000
C           77.01155700000000        0.02258800000000        0.02260400000000
C           76.26037799999999       -1.16136500000000        0.49042600000000
C           76.79487700000000       -2.17377900000000        1.16125400000000
C           75.76246300000000       -3.18154500000000        1.31120500000000
C           74.66883399999999       -2.71693700000000        0.71760600000000
C           73.41585700000000       -3.48953300000000        0.54115600000000
C           73.47919200000000       -4.96910000000000        0.62715700000000
C           72.78151800000001       -5.65374600000000        1.63429300000000
C           72.85719599999999       -7.05084900000000        1.72669300000000
C           72.14711800000001       -7.77025100000000        2.83472200000000
C           73.66257800000000       -7.76132100000000        0.82393900000000
C           74.35778699999999       -7.08731700000000       -0.19096000000000
C           75.24233500000000       -7.85177200000000       -1.13079700000000
C           74.27491400000000       -5.68979500000000       -0.27549600000000
C           72.24395199999998       -2.87714700000000        0.28479800000000
C           70.96914099999999       -3.53701100000000        0.02251600000000
C           70.08087900000000       -2.57449800000000       -0.12038500000000
C           70.77744700000000       -1.29406300000000        0.04335800000000
N           72.04173899999999       -1.46404800000000        0.27721100000000
N           74.89286499999999       -1.41774300000000        0.17348300000000
C           73.56710099999999        4.83654600000000       -0.71599700000000
C           74.15447499999999        5.64532900000000        0.26766000000000
C           74.20292699999999        7.03754600000000        0.10586900000000
C           74.87468600000000        7.89266000000000        1.13943400000000
C           73.68418400000000        7.61661000000000       -1.06230700000000
C           73.08365000000001        6.81698700000000       -2.04643200000000
C           72.56179899999999        7.43964100000000       -3.30679900000000
C           73.04158400000000        5.42551200000000       -1.87600800000000
H           69.06205199999999        2.73018100000000        0.01377400000000
H           70.86691899999998        4.48987100000000       -0.29170000000000
H           76.24831200000000        4.26881300000000       -1.34794500000000
H           78.10134100000001        2.51888600000000       -1.04224300000000
H           77.81876699999999       -2.25693100000000        1.50081400000000
H           75.87894400000000       -4.14951500000000        1.78081200000000
H           72.18762500000000       -5.09717700000000        2.35001100000000
H           71.90825800000000       -8.81431200000000        2.53795500000000
H           72.79512400000000       -7.78938300000000        3.73570600000000
H           71.19422600000000       -7.25756600000000        3.08508800000000
H           73.74995099999998       -8.83817500000000        0.91147800000000
H           75.39118000000001       -7.29219200000000       -2.07949100000000
H           74.78537799999999       -8.83355800000000       -1.37970800000000
H           76.23035600000000       -8.02075700000000       -0.65256800000000
H           74.82809800000000       -5.16092900000000       -1.04281700000000
H           70.76651199999999       -4.59705600000000       -0.05436600000000
H           69.03145700000000       -2.72797300000000       -0.33243500000000
H           74.57529900000000        5.18899500000000        1.15632500000000
H           74.44129000000000        8.91546900000000        1.14570900000000
H           75.95939300000001        7.96064300000000        0.91373500000000
H           74.74134900000000        7.45803500000000        2.15285000000000
H           73.74757500000000        8.68884700000000       -1.20599600000000
H           72.13555599999999        8.44351000000000       -3.09640400000000
H           71.76061799999999        6.81315700000000       -3.75477200000000
H           73.39074900000000        7.54322400000000       -4.03806500000000
H           72.60590000000001        4.79849900000000       -2.64554600000000
282
 energy: -440.388965803896 gnorm: 0.487957767040 xtb: 6.5.1 (b24c23e)
Zn          44.63802129760267       -0.02189043518653       -0.03036636183756
C           41.27784126142028        0.16134304084637       -0.26769414307573
C           41.94718460240713        1.27984967771842        0.10039044203989
C           41.29190064958863        2.51629154432794        0.49455320886480
C           42.24525296168522        3.40088002371928        0.78772042943148
C           43.53995801409214        2.75264354981546        0.57914828446653
N           43.34075331896089        1.42837753764320        0.15515644744412
C           44.75246630938500        3.34989369521157        0.76367902226277
C           46.02742920551631        2.67769867148089        0.54332420809975
C           47.31695957433586        3.35904114141623        0.54329585545035
C           48.26263039024051        2.43976465820780        0.32043162881193
N           46.18172635692942        1.38789757152572        0.32416140083451
C           47.58265788868216        1.16618763268545        0.17780461488280
C           48.15882502866746       -0.03672919461000       -0.01981639097454
C           47.40286749478715       -1.27229703611920       -0.16514531732456
C           47.96295838882801       -2.51531106122997       -0.14829021354596
C           46.93429928053278       -3.45983897517062       -0.40364937156212
C           45.76829166420724       -2.76823372616947       -0.56247825289176
C           44.49029788404422       -3.39666356654513       -0.91405384811619
C           44.45772242873608       -4.84826867027012       -1.25248379955138
C           44.38374310926316       -5.26404729509160       -2.58682170597502
C           44.37513946618710       -6.62579245335534       -2.90617277629267
C           44.27458603969516       -7.06733409910396       -4.34181605847328
C           44.40661705998856       -7.57314473904255       -1.87848451066161
C           44.46452475833951       -7.17049156355326       -0.54048744892131
C           44.52857948222010       -8.20505618751621        0.55133551853057
C           44.49632450285786       -5.80699643346335       -0.23397158957176
C           43.32046728752083       -2.71079490036790       -0.93189258133722
C           42.00805712826015       -3.25243776902981       -1.24969712843423
C           41.13477161972246       -2.25742088380241       -1.05910059212999
C           41.88858012426123       -1.09277200561443       -0.62336673426125
N           43.17502812477197       -1.35845631962245       -0.55279160270189
N           46.00876137538944       -1.38265219339039       -0.41275769858309
C           44.79218379461933        4.76659778739894        1.20989682787411
C           44.46985124635469        5.80019356976110        0.32393585524022
C           44.51580329124841        7.13212990225196        0.74404382347383
C           44.19094534618674        8.24452110643074       -0.21636245980561
C           44.91335869447604        7.42748508477456        2.05146893785780
C           45.25072711065580        6.40373717396454        2.94144966302660
C           45.63933226231318        6.72560795577627        4.35918158240361
C           45.17478826418908        5.07388627581677        2.51894142100693
H           40.19500147649020        0.20904285129313       -0.28300353619142
H           40.22789851039056        2.70055483001978        0.55324147893100
H           42.06038873540549        4.41232189213495        1.11995585751067
H           47.49938247561483        4.41077579042752        0.68754608884110
H           49.32381933246667        2.63260126666036        0.26544577956091
H           49.00631678080340       -2.72987471975435        0.00514094201736
H           47.05256899968460       -4.52783290268428       -0.48939452661836
H           44.34003731603576       -4.52191295669182       -3.37870445441557
H           44.76957726310810       -8.04056158790411       -4.48824332813398
H           43.21157821967289       -7.16379000988207       -4.61916595221450
H           44.75168244548976       -6.33395809078560       -5.01132143417296
H           44.38547196877161       -8.63253117987792       -2.12069734870543
H           44.36374347669665       -7.75346397372987        1.54292819602327
H           43.75844762028111       -8.97617783847100        0.38899039751757
H           45.52031912100914       -8.68712848910910        0.54299048323491
H           44.55119648995376       -5.48331503319289        0.80122669109485
H           41.75741853769620       -4.25583781475236       -1.56518561389863
H           40.06866280509937       -2.32255166443048       -1.19733380509583
H           44.18643551952123        5.56348832714656       -0.69733258261278
H           43.70904671926630        9.08316852623897        0.31085735955182
H           43.50814089069377        7.89520537863929       -1.00677818663917
H           45.12143639206166        8.60677428917425       -0.68408765255692
H           44.95955359483671        8.46285364882505        2.37833096075895
H           44.73622763827273        6.73306929452258        4.99133397927749
H           46.12232467029936        7.71360788190846        4.41834886805002
H           46.34187191417912        5.97342119586583        4.75235008172621
H           45.41572090927451        4.27074490959981        3.20912507415470
Zn          88.57659142707702       -0.00972879459902       -0.02121504615206
C           91.93676772899018        0.16719705173967       -0.26329920695896
C           91.26745305273015       -0.49767590836078       -1.23512382244164
C           91.92271771883819       -1.22044244173256       -2.31297996321735
C           90.96935280312729       -1.74824694335823       -3.08098418632330
C           89.67464455537075       -1.36746252638097       -2.51637007374038
N           89.87383455940251       -0.59162358360908       -1.36253384976070
C           88.46199020694819       -1.71091325117992       -3.03859766622921
C           87.18706205710511       -1.31209034666555       -2.45418641953631
C           85.89758830209546       -1.50182863647212       -3.10879077593871
C           84.95175866230663       -1.03196037670189       -2.28810543259256
N           87.03214158617800       -0.74235178416719       -1.27614489471913
C           85.63073099747406       -0.54033437292224       -1.10425407264019
C           85.05207629816164       -0.01539516574451       -0.00407040404716
C           85.81064337743652        0.46785723794991        1.14215983632836
C           85.25142228849833        0.79766297128827        2.34094504247146
C           86.28028920566295        1.30575754346589        3.17686590263081
C           87.44618503558013        1.26573802859743        2.46826793567910
C           88.72426690637018        1.77841930573974        2.97411551830204
C           88.75687491895232        2.50756345634053        4.27418752831001
C           88.83088328951357        3.90490601421859        4.30209923558072
C           88.83948479031068        4.59069751126988        5.52114140996093
C           88.94003402043145        6.09250154122591        5.54559628701644
C           88.80800652524523        3.86732755677336        6.71711261792182
C           88.75009772142985        2.47012923074257        6.70284133306029
C           88.68604371414257        1.70944640322936        8.00042150629743
C           88.71829061915821        1.79617676349208        5.47854197546613
C           89.89412917299167        1.60464477063119        2.31043393941259
C           91.20655883569334        2.06066608558939        2.74221330456183
C           92.07983904257330        1.60063950562241        1.83958816273357
C           91.32602448575162        0.85793194554212        0.84226746449221
N           90.03957873005275        0.86408757416690        1.11706238253832