      -----------------------------------------------------------      
     |                   =====================                   |     
     |                           x T B                           |     
     |                   =====================                   |     
     |                         S. Grimme                         |     
     |          Mulliken Center for Theoretical Chemistry        |     
     |                    University of Bonn                     |     
      -----------------------------------------------------------      

   * xtb version 6.5.1 (b24c23e) compiled by 'conda@728c89f4b128' on 2022-07-12

   xtb is free software: you can redistribute it and/or modify it under
   the terms of the GNU Lesser General Public License as published by
   the Free Software Foundation, either version 3 of the License, or
   (at your option) any later version.
   
   xtb is distributed in the hope that it will be useful,
   but WITHOUT ANY WARRANTY; without even the implied warranty of
   MERCHANTABILITY or FITNESS FOR A PARTICULAR PURPOSE.  See the
   GNU Lesser General Public License for more details.
   
   Cite this work as:
   * C. Bannwarth, E. Caldeweyher, S. Ehlert, A. Hansen, P. Pracht,
     J. Seibert, S. Spicher, S. Grimme, WIREs Comput. Mol. Sci., 2020, 11,
     e01493. DOI: 10.1002/wcms.1493
   
   for GFN2-xTB:
   * C. Bannwarth, S. Ehlert and S. Grimme., J. Chem. Theory Comput., 2019,
     15, 1652-1671. DOI: 10.1021/acs.jctc.8b01176
   for GFN1-xTB:
   * S. Grimme, C. Bannwarth, P. Shushkov, J. Chem. Theory Comput., 2017,
     13, 1989-2009. DOI: 10.1021/acs.jctc.7b00118
   for GFN0-xTB:
   * P. Pracht, E. Caldeweyher, S. Ehlert, S. Grimme, ChemRxiv, 2019, preprint.
     DOI: 10.26434/chemrxiv.8326202.v1
   for GFN-FF:
   * S. Spicher and S. Grimme, Angew. Chem. Int. Ed., 2020, 59, 15665-15673.
     DOI: 10.1002/anie.202004239
   
   for ALPB and GBSA implicit solvation:
   * S. Ehlert, M. Stahn, S. Spicher, S. Grimme, J. Chem. Theory Comput.,
     2021, 17, 4250-4261. DOI: 10.1021/acs.jctc.1c00471
   
   for DFT-D4:
   * E. Caldeweyher, C. Bannwarth and S. Grimme, J. Chem. Phys., 2017,
     147, 034112. DOI: 10.1063/1.4993215
   * E. Caldeweyher, S. Ehlert, A. Hansen, H. Neugebauer, S. Spicher,
     C. Bannwarth and S. Grimme, J. Chem. Phys., 2019, 150, 154122.
     DOI: 10.1063/1.5090222
   * E. Caldeweyher, J.-M. Mewes, S. Ehlert and S. Grimme, Phys. Chem. Chem. Phys.
     2020, 22, 8499-8512. DOI: 10.1039/D0CP00502A
   
   for sTDA-xTB:
   * S. Grimme and C. Bannwarth, J. Chem. Phys., 2016, 145, 054103.
     DOI: 10.1063/1.4959605
   
   in the mass-spec context:
   * V. Asgeirsson, C. Bauer and S. Grimme, Chem. Sci., 2017, 8, 4879.
     DOI: 10.1039/c7sc00601b
   * J. Koopman and S. Grimme, ACS Omega 2019, 4, 12, 15120-15133.
     DOI: 10.1021/acsomega.9b02011
   
   for metadynamics refer to:
   * S. Grimme, J. Chem. Theory Comput., 2019, 155, 2847-2862
     DOI: 10.1021/acs.jctc.9b00143
   
   for SPH calculations refer to:
   * S. Spicher and S. Grimme, J. Chem. Theory Comput., 2021, 17, 1701-1714
     DOI: 10.1021/acs.jctc.0c01306
   
   with help from (in alphabetical order)
   P. Atkinson, C. Bannwarth, F. Bohle, G. Brandenburg, E. Caldeweyher
   M. Checinski, S. Dohm, S. Ehlert, S. Ehrlich, I. Gerasimov, C. Hölzer
   A. Katbashev, J. Koopman, C. Lavigne, S. Lehtola, F. März, M. Müller,
   F. Musil, H. Neugebauer, J. Pisarek, C. Plett, P. Pracht, F. Pultar,
   J. Seibert, P. Shushkov, S. Spicher, M. Stahn, M. Steiner, T. Strunk,
   J. Stückrath, T. Rose, and J. Unsleber
   
 * started run on 2022/07/30 at 23:02:26.519     

           -------------------------------------------------
          |                Calculation Setup                |
           -------------------------------------------------

          program call               : xtb NMA_C4_4.xyz --gfn 1 --opt -T 48
          hostname                   : cx3-15-19.cx3.hpc.ic.ac.uk
          coordinate file            : NMA_C4_4.xyz
          omp threads                :                     1

   ID    Z sym.   atoms
    1    6 C      1-5, 7-11, 13-18, 20-25, 27-31, 33-39, 68-72, 74-78, 80-85,
                  87-92, 94-98, 100-106, 135-151, 153-157, 159-164, 166-171,
                  173-177, 179-185, 213-217, 219-223, 225-230, 232-237,
                  239-243, 245-251
    2    7 N      6, 12, 19, 26, 32, 40, 73, 79, 86, 93, 99, 107, 152, 158,
                  165, 172, 178, 186, 218, 224, 231, 238, 244, 252
    3    1 H      41-67, 108-134, 187-212, 253-278

molecular fragmentation (1/2 indicates fragments):
111111111111111111111111111111111111111111111111111111111111111111122222
222222222222222222222222222222222222222222222222222222222222222222222222
222222222222222222222222222222222222222222222222222222222222222222222222
22222222222222222222222222222222222222222222222222222222222222
# atoms in fragment 1/2:    67   211
 fragment masses (1/2) :      519.62     1700.97
CMA distance (Bohr)    :  55.005
constraining FC (au)   :  0.0500
########################################################################
[WARNING] Please study the warnings concerning your input carefully
-1- prog_main_parseArguments: Unknown option '-T' provided
########################################################################

           -------------------------------------------------
          |                 G F N 1 - x T B                 |
           -------------------------------------------------

        Reference                      10.1021/acs.jctc.7b00118
      * Hamiltonian:
        H0-scaling (s, p, d)           1.850000    2.250000    2.000000
        zeta-weighting                 0.000000
      * Dispersion:
        s8                             2.400000
        a1                             0.630000
        a2                             5.000000
        s9                             0.000000
      * Repulsion:
        kExp                           1.500000
        rExp                           1.000000
      * Coulomb:
        alpha                          2.000000
        third order                    atomic
        anisotropic                    false
      * Halogen bond correction:
        rad-scale                      1.300000
        damping                        0.440000


          ...................................................
          :                      SETUP                      :
          :.................................................:
          :  # basis functions                 900          :
          :  # atomic orbitals                 900          :
          :  # shells                          556          :
          :  # electrons                       818          :
          :  # halogen bonds                     0          :
          :  max. iterations                   250          :
          :  Hamiltonian                  GFN1-xTB          :
          :  restarted?                      false          :
          :  GBSA solvation                  false          :
          :  PC potential                    false          :
          :  electronic temp.          300.0000000     K    :
          :  accuracy                    1.0000000          :
          :  -> integral cutoff          0.2500000E+02      :
          :  -> integral neglect         0.1000000E-07      :
          :  -> SCF convergence          0.1000000E-05 Eh   :
          :  -> wf. convergence          0.2000000E-04 e    :
          :  Broyden damping             0.4000000          :
          ...................................................

 iter      E             dE          RMSdq      gap      omega  full diag
   1   -451.4516264 -0.451452E+03  0.999E+00    0.19       0.0  T
   2   -451.1971245  0.254502E+00  0.601E+00    0.11       1.0  T
   3   -326.4869124  0.124710E+03  0.624E+00    0.15       1.0  T
   4   -211.0533394  0.115434E+03  0.681E+00    0.04       1.0  T
   5   -394.0328016 -0.182979E+03  0.427E+00    0.02       1.0  T
   6   -449.9283349 -0.558955E+02  0.158E+00    0.05       1.0  T
   7   -450.9199515 -0.991617E+00  0.105E+00    0.08       1.0  T
   8   -451.1963469 -0.276395E+00  0.781E-01    0.18       1.0  T
   9   -451.8400283 -0.643681E+00  0.443E-01    0.11       1.0  T
  10   -451.7658479  0.741804E-01  0.411E-01    0.09       1.0  T
  11   -451.9187539 -0.152906E+00  0.270E-01    0.10       1.0  T
  12   -451.9400988 -0.213449E-01  0.195E-01    0.06       1.0  T
  13   -451.9447770 -0.467824E-02  0.175E-01    0.13       1.0  T
  14   -451.8391086  0.105668E+00  0.253E-01    0.04       1.0  T
  15   -451.9670967 -0.127988E+00  0.113E-01    0.15       1.0  T
  16   -451.9718971 -0.480043E-02  0.735E-02    0.15       1.0  T
  17   -451.9731141 -0.121694E-02  0.566E-02    0.15       1.0  T
  18   -451.9745625 -0.144838E-02  0.358E-02    0.15       1.0  T
  19   -451.9755061 -0.943623E-03  0.256E-02    0.16       1.0  T
  20   -451.9758589 -0.352850E-03  0.237E-02    0.17       1.0  T
  21   -451.9757805  0.783987E-04  0.212E-02    0.16       1.0  T
  22   -451.9758133 -0.327592E-04  0.155E-02    0.17       1.0  T
  23   -451.9759302 -0.116877E-03  0.113E-02    0.17       1.0  T
  24   -451.9759891 -0.588941E-04  0.889E-03    0.17       1.0  T
  25   -451.9760368 -0.477512E-04  0.596E-03    0.17       1.0  T
  26   -451.9760665 -0.297028E-04  0.396E-03    0.17       1.5  T
  27   -451.9760850 -0.184773E-04  0.291E-03    0.17       2.1  T
  28   -451.9760932 -0.819620E-05  0.162E-03    0.16       3.7  T
  29   -451.9760955 -0.229215E-05  0.852E-04    0.16       7.0  T
  30   -451.9760961 -0.611204E-06  0.346E-04    0.16      17.3  T
  31   -451.9760962 -0.642858E-07  0.221E-04    0.16      27.2  T
  32   -451.9760962 -0.349032E-07  0.149E-04    0.16      40.3  T
  33   -451.9760962 -0.112996E-07  0.877E-05    0.16      68.4  T

   *** convergence criteria satisfied after 33 iterations ***

         #    Occupation            Energy/Eh            Energy/eV
      -------------------------------------------------------------
         1        2.0000           -0.7948616             -21.6293
       ...           ...                  ...                  ...
       403        2.0000           -0.3915376             -10.6543
       404        2.0000           -0.3912640             -10.6468
       405        2.0000           -0.3901410             -10.6163
       406        2.0000           -0.3738875             -10.1740
       407        2.0000           -0.3717685             -10.1163
       408        2.0000           -0.3710873             -10.0978
       409        1.8953           -0.3593557              -9.7786 (HOMO)
       410        0.0652           -0.3533838              -9.6161 (LUMO)
       411        0.0383           -0.3528644              -9.6019
       412        0.0007           -0.3490687              -9.4986
       413        0.0004           -0.3485597              -9.4848
       414        0.0000           -0.3455876              -9.4039
       ...           ...                  ...                  ...
       900                          1.2893878              35.0860
      -------------------------------------------------------------
                  HL-Gap            0.0059719 Eh            0.1625 eV
             Fermi-level           -0.3566042 Eh           -9.7037 eV

 SCC (total)                   0 d,  0 h,  0 min, 10.226 sec
 SCC setup                      ...        0 min,  0.022 sec (  0.214%)
 Dispersion                     ...        0 min,  0.015 sec (  0.148%)
 classical contributions        ...        0 min,  0.004 sec (  0.036%)
 integral evaluation            ...        0 min,  0.305 sec (  2.984%)
 iterations                     ...        0 min,  9.158 sec ( 89.554%)
 molecular gradient             ...        0 min,  0.670 sec (  6.556%)
 printout                       ...        0 min,  0.052 sec (  0.508%)

         :::::::::::::::::::::::::::::::::::::::::::::::::::::
         ::                     SUMMARY                     ::
         :::::::::::::::::::::::::::::::::::::::::::::::::::::
         :: total energy            -445.229832542332 Eh    ::
         :: gradient norm              0.678869487881 Eh/a0 ::
         :: HOMO-LUMO gap              0.162503825248 eV    ::
         ::.................................................::
         :: SCC energy              -451.976096198336 Eh    ::
         :: -> electrostatic           0.342342583962 Eh    ::
         :: repulsion energy           6.966541479517 Eh    ::
         :: dispersion energy         -0.220277823512 Eh    ::
         :: halogen bond corr.         0.000000000000 Eh    ::
         :: add. restraining           0.000000000000 Eh    ::
         :: total charge               0.000000000000 e     ::
         :::::::::::::::::::::::::::::::::::::::::::::::::::::

      ----------------------------------------------------------- 
     |                   =====================                   |
     |                        A N C O P T                        |
     |                   =====================                   |
     |               Approximate Normal Coordinate               |
     |                Rational Function Optimizer                |
      ----------------------------------------------------------- 

          ...................................................
          :                      SETUP                      :
          :.................................................:
          :   optimization level            normal          :
          :   max. optcycles                   834          :
          :   ANC micro-cycles                  20          :
          :   degrees of freedom               828          :
          :.................................................:
          :   RF solver                   davidson          :
          :   write xtbopt.log                true          :
          :   linear?                        false          :
          :   energy convergence         0.5000000E-05 Eh   :
          :   grad. convergence          0.1000000E-02 Eh/α :
          :   maximium RF displ.         1.0000000          :
          :   Hlow (freq-cutoff)         0.1000000E-01      :
          :   Hmax (freq-cutoff)         5.0000000          :
          :   S6 in model hess.         20.0000000          :
          ...................................................

generating ANC from model Hessian ...
Using Lindh-Hessian (1995)
 Shifting diagonal of input Hessian by    1.0006892156619733E-002
 Lowest  eigenvalues of input Hessian
    0.010000    0.010001    0.010002    0.010004    0.010005    0.010005
    0.000000    0.000000    0.000000    0.000000    0.000000    0.000000
    0.010007    0.010011    0.010012    0.010015    0.010017    0.010021
 Highest eigenvalues
    2.098705    2.129650    2.129650    2.441446    2.594442    2.598403


........................................................................
.............................. CYCLE    1 ..............................
........................................................................
   1   -451.9760962 -0.451976E+03  0.351E-05    0.16       0.0  T
   2   -451.9760962  0.200890E-07  0.127E-04    0.16      47.0  T
   3   -451.9760962 -0.201575E-07  0.391E-05    0.16     153.5  T
     SCC iter.                  ...        0 min,  0.841 sec
     gradient                   ...        0 min,  0.699 sec
 * total energy  :  -445.2298325 Eh     change       -0.2469278E-08 Eh
   gradient norm :     0.6788655 Eh/α   predicted     0.0000000E+00 (-100.00%)
   displ. norm   :     0.5230241 α      lambda       -0.3051495E+00
   maximum displ.:     0.1080511 α      in ANC's #635, #704, #695, ...

........................................................................
.............................. CYCLE    2 ..............................
........................................................................
   1   -452.0930765 -0.452093E+03  0.978E-02    0.35       0.0  T
   2   -452.0929172  0.159286E-03  0.933E-02    0.23       1.0  T
   3   -452.0942700 -0.135276E-02  0.688E-02    0.26       1.0  T
   4   -452.0954009 -0.113092E-02  0.456E-02    0.26       1.0  T
   5   -452.0954094 -0.855449E-05  0.418E-02    0.26       1.0  T
   6   -452.0963037 -0.894275E-03  0.148E-02    0.24       1.0  T
   7   -452.0964749 -0.171147E-03  0.664E-03    0.25       1.0  T
   8   -452.0965104 -0.355121E-04  0.175E-03    0.25       3.4  T
   9   -452.0965120 -0.158206E-05  0.102E-03    0.25       5.9  T
  10   -452.0965125 -0.535884E-06  0.641E-04    0.25       9.4  T
  11   -452.0965127 -0.191009E-06  0.339E-04    0.25      17.7  T
  12   -452.0965128 -0.802312E-07  0.125E-04    0.25      48.1  T
  13   -452.0965128 -0.949541E-08  0.678E-05    0.25      88.4  T
     SCC iter.                  ...        0 min,  3.734 sec
     gradient                   ...        0 min,  0.661 sec
 * total energy  :  -445.4887978 Eh     change       -0.2589653E+00 Eh
   gradient norm :     0.4655429 Eh/α   predicted    -0.1943355E+00 ( -24.96%)
   displ. norm   :     0.6520926 α      lambda       -0.2747882E+00
   maximum displ.:     0.1201633 α      in ANC's #704, #752, #695, ...

........................................................................
.............................. CYCLE    3 ..............................
........................................................................
   1   -452.3373359 -0.452337E+03  0.113E-01    0.37       0.0  T
   2   -452.3372954  0.404568E-04  0.106E-01    0.42       1.0  T
   3   -452.3405650 -0.326958E-02  0.613E-02    0.36       1.0  T
   4   -452.3417357 -0.117069E-02  0.354E-02    0.41       1.0  T
   5   -452.3419254 -0.189715E-03  0.229E-02    0.38       1.0  T
   6   -452.3422147 -0.289337E-03  0.800E-03    0.40       1.0  T
   7   -452.3422540 -0.392855E-04  0.251E-03    0.40       2.4  T
   8   -452.3422575 -0.348324E-05  0.109E-03    0.39       5.5  T
   9   -452.3422581 -0.599131E-06  0.471E-04    0.39      12.7  T
  10   -452.3422582 -0.114318E-06  0.148E-04    0.39      40.5  T
  11   -452.3422582 -0.519748E-08  0.796E-05    0.39      75.3  T
     SCC iter.                  ...        0 min,  3.232 sec
     gradient                   ...        0 min,  0.667 sec
 * total energy  :  -445.6260099 Eh     change       -0.1372121E+00 Eh
   gradient norm :     0.3067372 Eh/α   predicted    -0.1958520E+00 (  42.74%)
   displ. norm   :     0.5559246 α      lambda       -0.9415013E-01
   maximum displ.:     0.1050079 α      in ANC's #60, #64, #173, ...

........................................................................
.............................. CYCLE    4 ..............................
........................................................................
   1   -452.3320362 -0.452332E+03  0.521E-02    0.55       0.0  T
   2   -452.3304624  0.157374E-02  0.806E-02    0.51       1.0  T
   3   -452.3334596 -0.299715E-02  0.195E-02    0.53       1.0  T
   4   -452.3333740  0.856335E-04  0.177E-02    0.53       1.0  T
   5   -452.3334620 -0.879991E-04  0.928E-03    0.53       1.0  T
   6   -452.3334994 -0.374737E-04  0.288E-03    0.53       2.1  T
   7   -452.3335045 -0.506747E-05  0.704E-04    0.53       8.5  T
   8   -452.3335048 -0.332930E-06  0.211E-04    0.53      28.5  T
   9   -452.3335048 -0.146424E-07  0.138E-04    0.53      43.4  T
  10   -452.3335049 -0.782472E-08  0.752E-05    0.53      79.8  T
     SCC iter.                  ...        0 min,  2.640 sec
     gradient                   ...        0 min,  0.677 sec
 * total energy  :  -445.6812299 Eh     change       -0.5522000E-01 Eh
   gradient norm :     0.1049297 Eh/α   predicted    -0.6162375E-01 (  11.60%)
   displ. norm   :     0.7707098 α      lambda       -0.4726046E-01
   maximum displ.:     0.1978384 α      in ANC's #60, #64, #79, ...

........................................................................
.............................. CYCLE    5 ..............................
........................................................................
   1   -452.4036271 -0.452404E+03  0.289E-02    0.73       0.0  T
   2   -452.4037221 -0.949721E-04  0.292E-02    0.72       1.0  T
   3   -452.4040256 -0.303557E-03  0.109E-02    0.73       1.0  T
   4   -452.4040141  0.115609E-04  0.787E-03    0.73       1.0  T
   5   -452.4040322 -0.181710E-04  0.476E-03    0.73       1.3  T
   6   -452.4040421 -0.981619E-05  0.155E-03    0.73       3.9  T
   7   -452.4040438 -0.179016E-05  0.528E-04    0.73      11.4  T
   8   -452.4040440 -0.194100E-06  0.160E-04    0.73      37.4  T
   9   -452.4040440 -0.104495E-07  0.903E-05    0.73      66.4  T
     SCC iter.                  ...        0 min,  2.699 sec
     gradient                   ...        0 min,  0.662 sec
 * total energy  :  -445.7216611 Eh     change       -0.4043115E-01 Eh
   gradient norm :     0.0708496 Eh/α   predicted    -0.3766675E-01 (  -6.84%)
   displ. norm   :     0.8967608 α      lambda       -0.4375619E-01
   maximum displ.:     0.2601867 α      in ANC's #60, #79, #64, ...

........................................................................
.............................. CYCLE    6 ..............................
........................................................................
   1   -452.4696745 -0.452470E+03  0.339E-02    0.86       0.0  T
   2   -452.4697854 -0.110875E-03  0.353E-02    0.88       1.0  T
   3   -452.4702075 -0.422088E-03  0.114E-02    0.88       1.0  T
   4   -452.4701808  0.267452E-04  0.824E-03    0.89       1.0  T
   5   -452.4702151 -0.343250E-04  0.449E-03    0.89       1.3  T
   6   -452.4702229 -0.777528E-05  0.130E-03    0.89       4.6  T
   7   -452.4702242 -0.131107E-05  0.555E-04    0.89      10.8  T
   8   -452.4702244 -0.222669E-06  0.161E-04    0.89      37.3  T
   9   -452.4702244 -0.678983E-08  0.105E-04    0.89      57.0  T
     SCC iter.                  ...        0 min,  2.378 sec
     gradient                   ...        0 min,  0.698 sec
 * total energy  :  -445.7624119 Eh     change       -0.4075081E-01 Eh
   gradient norm :     0.0618068 Eh/α   predicted    -0.3947205E-01 (  -3.14%)
   displ. norm   :     0.9556759 α      lambda       -0.4527714E-01
   maximum displ.:     0.2709020 α      in ANC's #79, #60, #64, ...

........................................................................
.............................. CYCLE    7 ..............................
........................................................................
   1   -452.5126329 -0.452513E+03  0.435E-02    0.92       0.0  T
   2   -452.5129817 -0.348859E-03  0.400E-02    0.94       1.0  T
   3   -452.5133954 -0.413646E-03  0.152E-02    0.94       1.0  T
   4   -452.5133124  0.829628E-04  0.118E-02    0.94       1.0  T
   5   -452.5134109 -0.985053E-04  0.510E-03    0.94       1.2  T
   6   -452.5134210 -0.101176E-04  0.123E-03    0.94       4.9  T
   7   -452.5134220 -0.966713E-06  0.576E-04    0.94      10.4  T
   8   -452.5134223 -0.241534E-06  0.206E-04    0.94      29.1  T
   9   -452.5134223 -0.189280E-07  0.105E-04    0.94      57.4  T
  10   -452.5134223 -0.301361E-08  0.484E-05    0.94     123.9  T
     SCC iter.                  ...        0 min,  2.935 sec
     gradient                   ...        0 min,  0.663 sec
 * total energy  :  -445.8055700 Eh     change       -0.4315809E-01 Eh
   gradient norm :     0.0759094 Eh/α   predicted    -0.4331475E-01 (   0.36%)
   displ. norm   :     0.9491472 α      lambda       -0.4840875E-01
   maximum displ.:     0.2797955 α      in ANC's #60, #79, #64, ...

........................................................................
.............................. CYCLE    8 ..............................
........................................................................
   1   -452.5321893 -0.452532E+03  0.526E-02    0.89       0.0  T
   2   -452.5327254 -0.536087E-03  0.458E-02    0.89       1.0  T
   3   -452.5330496 -0.324245E-03  0.204E-02    0.89       1.0  T
   4   -452.5328133  0.236312E-03  0.175E-02    0.88       1.0  T
   5   -452.5330627 -0.249430E-03  0.568E-03    0.88       1.1  T
   6   -452.5330758 -0.130562E-04  0.155E-03    0.88       3.9  T
   7   -452.5330774 -0.167110E-05  0.736E-04    0.88       8.1  T
   8   -452.5330778 -0.327470E-06  0.210E-04    0.88      28.6  T
   9   -452.5330778 -0.142574E-07  0.141E-04    0.88      42.6  T
  10   -452.5330778 -0.983198E-08  0.540E-05    0.88     111.1  T
     SCC iter.                  ...        0 min,  2.653 sec
     gradient                   ...        0 min,  0.700 sec
 * total energy  :  -445.8509277 Eh     change       -0.4535777E-01 Eh
   gradient norm :     0.0850327 Eh/α   predicted    -0.4600964E-01 (   1.44%)
   displ. norm   :     0.9152486 α      lambda       -0.4650370E-01
   maximum displ.:     0.2917259 α      in ANC's #60, #79, #70, ...

........................................................................
.............................. CYCLE    9 ..............................
........................................................................
   1   -452.5492269 -0.452549E+03  0.485E-02    0.83       0.0  T
   2   -452.5495064 -0.279495E-03  0.488E-02    0.84       1.0  T
   3   -452.5498024 -0.296052E-03  0.233E-02    0.84       1.0  T
   4   -452.5495000  0.302464E-03  0.214E-02    0.84       1.0  T
   5   -452.5498087 -0.308749E-03  0.346E-03    0.84       1.7  T
   6   -452.5498152 -0.648745E-05  0.108E-03    0.84       5.5  T
   7   -452.5498159 -0.686712E-06  0.492E-04    0.84      12.2  T
   8   -452.5498161 -0.198983E-06  0.163E-04    0.84      36.7  T
   9   -452.5498161 -0.115909E-07  0.814E-05    0.84      73.7  T
     SCC iter.                  ...        0 min,  2.549 sec
     gradient                   ...        0 min,  0.672 sec
 * total energy  :  -445.8907282 Eh     change       -0.3980050E-01 Eh
   gradient norm :     0.0736553 Eh/α   predicted    -0.4272948E-01 (   7.36%)
   displ. norm   :     0.8494573 α      lambda       -0.3870083E-01
   maximum displ.:     0.2972277 α      in ANC's #60, #64, #79, ...

........................................................................
.............................. CYCLE   10 ..............................
........................................................................
   1   -452.5839154 -0.452584E+03  0.287E-02    0.83       0.0  T
   2   -452.5839751 -0.596883E-04  0.278E-02    0.83       1.0  T
   3   -452.5841038 -0.128640E-03  0.127E-02    0.83       1.0  T
   4   -452.5839905  0.113212E-03  0.142E-02    0.83       1.0  T
   5   -452.5841119 -0.121338E-03  0.255E-03    0.83       2.4  T
   6   -452.5841137 -0.183827E-05  0.665E-04    0.83       9.0  T
   7   -452.5841140 -0.304211E-06  0.287E-04    0.83      20.9  T
   8   -452.5841141 -0.709697E-07  0.756E-05    0.83      79.3  T
   9   -452.5841141 -0.153835E-08  0.420E-05    0.83     142.9  T
     SCC iter.                  ...        0 min,  2.406 sec
     gradient                   ...        0 min,  0.709 sec
 * total energy  :  -445.9248439 Eh     change       -0.3411570E-01 Eh
   gradient norm :     0.0559295 Eh/α   predicted    -0.3331325E-01 (  -2.35%)
   displ. norm   :     0.8790952 α      lambda       -0.3481608E-01
   maximum displ.:     0.3021895 α      in ANC's #70, #60, #79, ...

........................................................................
.............................. CYCLE   11 ..............................
........................................................................
   1   -452.6404244 -0.452640E+03  0.202E-02    0.84       0.0  T
   2   -452.6404544 -0.299874E-04  0.171E-02    0.84       1.0  T
   3   -452.6405291 -0.747186E-04  0.760E-03    0.84       1.0  T
   4   -452.6405102  0.189306E-04  0.811E-03    0.84       1.0  T
   5   -452.6405444 -0.342718E-04  0.213E-03    0.84       2.8  T
   6   -452.6405454 -0.936228E-06  0.634E-04    0.84       9.5  T
   7   -452.6405457 -0.335704E-06  0.219E-04    0.84      27.4  T
   8   -452.6405457 -0.348330E-07  0.807E-05    0.84      74.3  T
   9   -452.6405457 -0.165124E-08  0.475E-05    0.84     126.3  T
     SCC iter.                  ...        0 min,  2.659 sec
     gradient                   ...        0 min,  0.668 sec
 * total energy  :  -445.9539155 Eh     change       -0.2907160E-01 Eh
   gradient norm :     0.0543159 Eh/α   predicted    -0.3086111E-01 (   6.16%)
   displ. norm   :     0.9277011 α      lambda       -0.3352275E-01
   maximum displ.:     0.3535905 α      in ANC's #60, #64, #79, ...

........................................................................
.............................. CYCLE   12 ..............................
........................................................................
   1   -452.6949092 -0.452695E+03  0.138E-02    0.82       0.0  T
   2   -452.6949367 -0.275557E-04  0.105E-02    0.82       1.0  T
   3   -452.6949678 -0.310408E-04  0.539E-03    0.82       1.1  T
   4   -452.6949651  0.262369E-05  0.503E-03    0.82       1.2  T
   5   -452.6949787 -0.135509E-04  0.127E-03    0.82       4.7  T
   6   -452.6949791 -0.395621E-06  0.587E-04    0.82      10.2  T
   7   -452.6949794 -0.329335E-06  0.132E-04    0.82      45.5  T
   8   -452.6949794 -0.611931E-08  0.716E-05    0.82      83.8  T
     SCC iter.                  ...        0 min,  2.131 sec
     gradient                   ...        0 min,  0.707 sec
 * total energy  :  -445.9782651 Eh     change       -0.2434956E-01 Eh
   gradient norm :     0.0590975 Eh/α   predicted    -0.3118672E-01 (  28.08%)
   displ. norm   :     0.8480941 α      lambda       -0.3064358E-01
   maximum displ.:     0.2878546 α      in ANC's #60, #70, #79, ...

........................................................................
.............................. CYCLE   13 ..............................
........................................................................
   1   -452.7469976 -0.452747E+03  0.259E-02    0.78       0.0  T
   2   -452.7470689 -0.713045E-04  0.190E-02    0.78       1.0  T
   3   -452.7471114 -0.425263E-04  0.962E-03    0.78       1.0  T
   4   -452.7470831  0.283499E-04  0.723E-03    0.78       1.0  T
   5   -452.7471156 -0.325176E-04  0.234E-03    0.78       2.6  T
   6   -452.7471196 -0.399142E-05  0.651E-04    0.78       9.2  T
   7   -452.7471200 -0.418372E-06  0.191E-04    0.78      31.4  T
   8   -452.7471200 -0.251740E-07  0.689E-05    0.78      87.0  T
     SCC iter.                  ...        0 min,  2.439 sec
     gradient                   ...        0 min,  0.669 sec
 * total energy  :  -446.0026363 Eh     change       -0.2437118E-01 Eh
   gradient norm :     0.0525355 Eh/α   predicted    -0.2634222E-01 (   8.09%)
   displ. norm   :     0.8720609 α      lambda       -0.2659773E-01
   maximum displ.:     0.2755117 α      in ANC's #60, #70, #79, ...

........................................................................
.............................. CYCLE   14 ..............................
........................................................................
   1   -452.7987718 -0.452799E+03  0.142E-02    0.79       0.0  T
   2   -452.7987891 -0.172765E-04  0.128E-02    0.78       1.0  T
   3   -452.7988250 -0.358910E-04  0.611E-03    0.78       1.0  T
   4   -452.7987920  0.330008E-04  0.669E-03    0.78       1.0  T
   5   -452.7988303 -0.383071E-04  0.115E-03    0.78       5.2  T
   6   -452.7988307 -0.394332E-06  0.382E-04    0.78      15.7  T
   7   -452.7988308 -0.106956E-06  0.181E-04    0.78      33.1  T
   8   -452.7988308 -0.240281E-07  0.640E-05    0.78      93.8  T
     SCC iter.                  ...        0 min,  2.112 sec
     gradient                   ...        0 min,  0.690 sec
 * total energy  :  -446.0246009 Eh     change       -0.2196460E-01 Eh
   gradient norm :     0.0383610 Eh/α   predicted    -0.2341254E-01 (   6.59%)
   displ. norm   :     0.9168524 α      lambda       -0.2355017E-01
   maximum displ.:     0.3348977 α      in ANC's #60, #70, #45, ...

........................................................................
.............................. CYCLE   15 ..............................
........................................................................
   1   -452.8495651 -0.452850E+03  0.126E-02    0.79       0.0  T
   2   -452.8495734 -0.830675E-05  0.104E-02    0.79       1.0  T
   3   -452.8495968 -0.234172E-04  0.492E-03    0.79       1.2  T
   4   -452.8495834  0.134090E-04  0.472E-03    0.79       1.3  T
   5   -452.8496015 -0.181539E-04  0.107E-03    0.79       5.6  T
   6   -452.8496023 -0.774092E-06  0.434E-04    0.79      13.8  T
   7   -452.8496025 -0.162089E-06  0.121E-04    0.79      49.6  T
   8   -452.8496025 -0.725402E-08  0.585E-05    0.79     102.6  T
     SCC iter.                  ...        0 min,  2.455 sec
     gradient                   ...        0 min,  0.667 sec
 * total energy  :  -446.0447644 Eh     change       -0.2016357E-01 Eh
   gradient norm :     0.0374074 Eh/α   predicted    -0.2167346E-01 (   7.49%)
   displ. norm   :     0.9160837 α      lambda       -0.2196730E-01
   maximum displ.:     0.2991496 α      in ANC's #60, #64, #70, ...

........................................................................
.............................. CYCLE   16 ..............................
........................................................................
   1   -452.8936760 -0.452894E+03  0.183E-02    0.76       0.0  T
   2   -452.8937148 -0.387662E-04  0.154E-02    0.76       1.0  T
   3   -452.8937559 -0.411199E-04  0.680E-03    0.76       1.0  T
   4   -452.8937323  0.235820E-04  0.629E-03    0.76       1.0  T
   5   -452.8937570 -0.246399E-04  0.158E-03    0.76       3.8  T
   6   -452.8937588 -0.180072E-05  0.413E-04    0.76      14.5  T
   7   -452.8937589 -0.943800E-07  0.158E-04    0.76      37.9  T
   8   -452.8937589 -0.168397E-07  0.774E-05    0.76      77.5  T
     SCC iter.                  ...        0 min,  2.110 sec
     gradient                   ...        0 min,  0.675 sec
 * total energy  :  -446.0620406 Eh     change       -0.1727613E-01 Eh
   gradient norm :     0.0435255 Eh/α   predicted    -0.2020125E-01 (  16.93%)
   displ. norm   :     0.8689898 α      lambda       -0.1948475E-01
   maximum displ.:     0.2630009 α      in ANC's #60, #45, #25, ...

........................................................................
.............................. CYCLE   17 ..............................
........................................................................
   1   -452.9447267 -0.452945E+03  0.184E-02    0.75       0.0  T
   2   -452.9447467 -0.200057E-04  0.194E-02    0.75       1.0  T
   3   -452.9448343 -0.875515E-04  0.800E-03    0.75       1.0  T
   4   -452.9447897  0.446007E-04  0.810E-03    0.75       1.0  T
   5   -452.9448358 -0.460941E-04  0.141E-03    0.75       4.2  T
   6   -452.9448368 -0.105629E-05  0.559E-04    0.75      10.7  T
   7   -452.9448371 -0.308696E-06  0.164E-04    0.75      36.6  T
   8   -452.9448371 -0.147554E-07  0.748E-05    0.75      80.2  T
     SCC iter.                  ...        0 min,  2.439 sec
     gradient                   ...        0 min,  0.679 sec
 * total energy  :  -446.0775269 Eh     change       -0.1548630E-01 Eh
   gradient norm :     0.0418621 Eh/α   predicted    -0.1709925E-01 (  10.42%)
   displ. norm   :     0.8747358 α      lambda       -0.1659448E-01
   maximum displ.:     0.2730275 α      in ANC's #25, #60, #70, ...

........................................................................
.............................. CYCLE   18 ..............................
........................................................................
   1   -452.9903896 -0.452990E+03  0.144E-02    0.75       0.0  T
   2   -452.9904008 -0.112001E-04  0.139E-02    0.75       1.0  T
   3   -452.9904571 -0.563775E-04  0.566E-03    0.75       1.1  T
   4   -452.9904321  0.250025E-04  0.617E-03    0.75       1.0  T
   5   -452.9904598 -0.277007E-04  0.144E-03    0.75       4.2  T
   6   -452.9904606 -0.749738E-06  0.569E-04    0.75      10.5  T
   7   -452.9904609 -0.331601E-06  0.163E-04    0.75      36.8  T
   8   -452.9904609 -0.165011E-07  0.600E-05    0.75     100.0  T
     SCC iter.                  ...        0 min,  2.105 sec
     gradient                   ...        0 min,  0.675 sec
 * total energy  :  -446.0911878 Eh     change       -0.1366091E-01 Eh
   gradient norm :     0.0368870 Eh/α   predicted    -0.1464596E-01 (   7.21%)
   displ. norm   :     0.8922734 α      lambda       -0.1462089E-01
   maximum displ.:     0.2918017 α      in ANC's #25, #45, #60, ...

........................................................................
.............................. CYCLE   19 ..............................
........................................................................
   1   -453.0331671 -0.453033E+03  0.144E-02    0.77       0.0  T
   2   -453.0331906 -0.235687E-04  0.108E-02    0.77       1.0  T
   3   -453.0332191 -0.285219E-04  0.464E-03    0.77       1.3  T
   4   -453.0332098  0.935086E-05  0.488E-03    0.77       1.2  T
   5   -453.0332268 -0.170078E-04  0.103E-03    0.77       5.8  T
   6   -453.0332269 -0.859950E-07  0.484E-04    0.77      12.4  T
   7   -453.0332271 -0.208874E-06  0.204E-04    0.77      29.4  T
   8   -453.0332271 -0.224311E-07  0.970E-05    0.77      61.8  T
   9   -453.0332271 -0.549579E-08  0.283E-05    0.77     212.1  T
     SCC iter.                  ...        0 min,  2.688 sec
     gradient                   ...        0 min,  0.681 sec
 * total energy  :  -446.1030652 Eh     change       -0.1187746E-01 Eh
   gradient norm :     0.0381803 Eh/α   predicted    -0.1313069E-01 (  10.55%)
   displ. norm   :     0.8723415 α      lambda       -0.1362721E-01
   maximum displ.:     0.3149240 α      in ANC's #25, #45, #16, ...

........................................................................
.............................. CYCLE   20 ..............................
........................................................................
   1   -453.0784178 -0.453078E+03  0.138E-02    0.74       0.0  T
   2   -453.0784415 -0.236575E-04  0.109E-02    0.74       1.0  T
   3   -453.0784854 -0.439497E-04  0.441E-03    0.74       1.4  T
   4   -453.0784795  0.587190E-05  0.455E-03    0.74       1.3  T
   5   -453.0784926 -0.130462E-04  0.155E-03    0.74       3.9  T
   6   -453.0784934 -0.851559E-06  0.522E-04    0.74      11.5  T
   7   -453.0784937 -0.220471E-06  0.171E-04    0.74      35.1  T
   8   -453.0784937 -0.212775E-07  0.782E-05    0.74      76.7  T
     SCC iter.                  ...        0 min,  2.125 sec
     gradient                   ...        0 min,  0.678 sec
 * total energy  :  -446.1137097 Eh     change       -0.1064444E-01 Eh
   gradient norm :     0.0395211 Eh/α   predicted    -0.1199863E-01 (  12.72%)
   displ. norm   :     0.8606397 α      lambda       -0.1131360E-01
   maximum displ.:     0.3300798 α      in ANC's #25, #16, #19, ...
 * RMSD in coord.:     0.8475555 α      energy gain  -0.8838771E+00 Eh

generating ANC from model Hessian ...
Using Lindh-Hessian (1995)
 Shifting diagonal of input Hessian by    1.0197742673437728E-002
 Lowest  eigenvalues of input Hessian
    0.010000    0.010073    0.010197    0.010197    0.000000    0.000000
    0.000000    0.000000    0.000000    0.000000    0.010199    0.010200
    0.010200    0.010206    0.010206    0.010206    0.010224    0.010229
 Highest eigenvalues
    2.198897    2.199864    2.215672    2.657233    2.670547    2.675788


........................................................................
.............................. CYCLE   21 ..............................
........................................................................
   1   -453.1165915 -0.453117E+03  0.933E-03    0.74       0.0  T
   2   -453.1165971 -0.562856E-05  0.689E-03    0.74       1.0  T
   3   -453.1166099 -0.127933E-04  0.335E-03    0.74       1.8  T
   4   -453.1166076  0.235394E-05  0.334E-03    0.74       1.8  T
   5   -453.1166165 -0.892875E-05  0.795E-04    0.74       7.5  T
   6   -453.1166167 -0.179218E-06  0.271E-04    0.74      22.1  T
   7   -453.1166168 -0.597945E-07  0.108E-04    0.74      55.6  T
   8   -453.1166168 -0.665165E-08  0.409E-05    0.74     146.7  T
     SCC iter.                  ...        0 min,  2.404 sec
     gradient                   ...        0 min,  0.682 sec
 * total energy  :  -446.1233637 Eh     change       -0.9654031E-02 Eh
   gradient norm :     0.0192396 Eh/α   predicted     0.0000000E+00 (-100.00%)
   displ. norm   :     0.5737777 α      lambda       -0.6582721E-02
   maximum displ.:     0.3272239 α      in ANC's #34, #66, #56, ...

........................................................................
.............................. CYCLE   22 ..............................
........................................................................
   1   -453.1404680 -0.453140E+03  0.447E-03    0.75       0.0  T
   2   -453.1404660  0.201615E-05  0.418E-03    0.75       1.4  T
   3   -453.1404746 -0.861507E-05  0.170E-03    0.75       3.5  T
   4   -453.1404739  0.678673E-06  0.141E-03    0.75       4.3  T
   5   -453.1404751 -0.123998E-05  0.449E-04    0.75      13.3  T
   6   -453.1404753 -0.120149E-06  0.194E-04    0.75      31.0  T
   7   -453.1404753 -0.391751E-07  0.402E-05    0.75     149.1  T
     SCC iter.                  ...        0 min,  1.838 sec
     gradient                   ...        0 min,  0.677 sec
 * total energy  :  -446.1295362 Eh     change       -0.6172463E-02 Eh
   gradient norm :     0.0129799 Eh/α   predicted    -0.4374952E-02 ( -29.12%)
   displ. norm   :     0.9061451 α      lambda       -0.9435726E-02
   maximum displ.:     0.4830801 α      in ANC's #34, #66, #56, ...

........................................................................
.............................. CYCLE   23 ..............................
........................................................................
   1   -453.1695229 -0.453170E+03  0.694E-03    0.75       0.0  T
   2   -453.1695222  0.655869E-06  0.595E-03    0.75       1.0  T
   3   -453.1695391 -0.168494E-04  0.241E-03    0.75       2.5  T
   4   -453.1695383  0.750213E-06  0.212E-03    0.75       2.8  T
   5   -453.1695411 -0.273173E-05  0.702E-04    0.75       8.5  T
   6   -453.1695413 -0.224132E-06  0.322E-04    0.75      18.6  T
   7   -453.1695414 -0.113985E-06  0.609E-05    0.75      98.5  T
   8   -453.1695414 -0.118496E-08  0.319E-05    0.75     187.9  T
     SCC iter.                  ...        0 min,  2.337 sec
     gradient                   ...        0 min,  0.690 sec
 * total energy  :  -446.1379597 Eh     change       -0.8423512E-02 Eh
   gradient norm :     0.0158395 Eh/α   predicted    -0.8591702E-02 (   2.00%)
   displ. norm   :     0.9217208 α      lambda       -0.9607688E-02
   maximum displ.:     0.5059536 α      in ANC's #34, #66, #56, ...

........................................................................
.............................. CYCLE   24 ..............................
........................................................................
   1   -453.1934651 -0.453193E+03  0.803E-03    0.76       0.0  T
   2   -453.1934687 -0.367493E-05  0.571E-03    0.76       1.1  T
   3   -453.1934803 -0.115854E-04  0.271E-03    0.76       2.2  T
   4   -453.1934817 -0.140677E-05  0.224E-03    0.76       2.7  T
   5   -453.1934848 -0.308486E-05  0.715E-04    0.76       8.4  T
   6   -453.1934851 -0.251456E-06  0.329E-04    0.76      18.2  T
   7   -453.1934852 -0.119987E-06  0.648E-05    0.76      92.6  T
   8   -453.1934852 -0.147980E-08  0.307E-05    0.76     195.5  T
     SCC iter.                  ...        0 min,  2.146 sec
     gradient                   ...        0 min,  0.677 sec
 * total energy  :  -446.1458605 Eh     change       -0.7900807E-02 Eh
   gradient norm :     0.0198018 Eh/α   predicted    -0.8885045E-02 (  12.46%)
   displ. norm   :     0.8876492 α      lambda       -0.8444242E-02
   maximum displ.:     0.4911473 α      in ANC's #34, #66, #56, ...

........................................................................
.............................. CYCLE   25 ..............................
........................................................................
   1   -453.2137914 -0.453214E+03  0.751E-03    0.76       0.0  T
   2   -453.2137990 -0.752495E-05  0.405E-03    0.76       1.5  T
   3   -453.2138022 -0.320744E-05  0.235E-03    0.76       2.5  T
   4   -453.2138040 -0.184227E-05  0.177E-03    0.76       3.4  T
   5   -453.2138062 -0.219220E-05  0.558E-04    0.76      10.7  T
   6   -453.2138064 -0.148191E-06  0.232E-04    0.76      25.9  T
   7   -453.2138064 -0.535642E-07  0.613E-05    0.76      97.8  T
   8   -453.2138064 -0.162726E-08  0.236E-05    0.76     254.2  T
     SCC iter.                  ...        0 min,  2.306 sec
     gradient                   ...        0 min,  0.686 sec
 * total energy  :  -446.1524651 Eh     change       -0.6604637E-02 Eh
   gradient norm :     0.0221743 Eh/α   predicted    -0.7548819E-02 (  14.30%)
   displ. norm   :     0.8437305 α      lambda       -0.8868082E-02
   maximum displ.:     0.4892941 α      in ANC's #34, #66, #1, ...

........................................................................
.............................. CYCLE   26 ..............................
........................................................................
   1   -453.2366621 -0.453237E+03  0.762E-03    0.75       0.0  T
   2   -453.2366718 -0.963991E-05  0.393E-03    0.75       1.5  T
   3   -453.2366749 -0.314869E-05  0.206E-03    0.75       2.9  T
   4   -453.2366745  0.401314E-06  0.160E-03    0.75       3.8  T
   5   -453.2366762 -0.171941E-05  0.629E-04    0.75       9.5  T
   6   -453.2366765 -0.299255E-06  0.155E-04    0.75      38.8  T
   7   -453.2366765 -0.208453E-07  0.690E-05    0.75      87.0  T
     SCC iter.                  ...        0 min,  1.828 sec
     gradient                   ...        0 min,  0.682 sec
 * total energy  :  -446.1587629 Eh     change       -0.6297717E-02 Eh
   gradient norm :     0.0183809 Eh/α   predicted    -0.7590548E-02 (  20.53%)
   displ. norm   :     0.8193840 α      lambda       -0.7387361E-02
   maximum displ.:     0.4970958 α      in ANC's #34, #66, #56, ...

........................................................................
.............................. CYCLE   27 ..............................
........................................................................
   1   -453.2573911 -0.453257E+03  0.618E-03    0.75       0.0  T
   2   -453.2573944 -0.332822E-05  0.392E-03    0.75       1.5  T
   3   -453.2573979 -0.343689E-05  0.218E-03    0.75       2.7  T
   4   -453.2573987 -0.814966E-06  0.171E-03    0.75       3.5  T
   5   -453.2574009 -0.219070E-05  0.484E-04    0.75      12.4  T
   6   -453.2574010 -0.124096E-06  0.202E-04    0.75      29.6  T
   7   -453.2574010 -0.423350E-07  0.511E-05    0.75     117.4  T
   8   -453.2574010 -0.122867E-08  0.175E-05    0.75     343.2  T
     SCC iter.                  ...        0 min,  2.173 sec
     gradient                   ...        0 min,  0.734 sec
 * total energy  :  -446.1646477 Eh     change       -0.5884857E-02 Eh
   gradient norm :     0.0154429 Eh/α   predicted    -0.6173586E-02 (   4.91%)
   displ. norm   :     0.8457094 α      lambda       -0.6609018E-02
   maximum displ.:     0.5451465 α      in ANC's #34, #56, #66, ...

........................................................................
.............................. CYCLE   28 ..............................
........................................................................
   1   -453.2777565 -0.453278E+03  0.572E-03    0.75       0.0  T
   2   -453.2777597 -0.320934E-05  0.345E-03    0.75       1.7  T
   3   -453.2777632 -0.356029E-05  0.182E-03    0.75       3.3  T
   4   -453.2777644 -0.113087E-05  0.135E-03    0.75       4.4  T
   5   -453.2777654 -0.106229E-05  0.436E-04    0.75      13.8  T
   6   -453.2777655 -0.830653E-07  0.191E-04    0.75      31.5  T
   7   -453.2777656 -0.406902E-07  0.498E-05    0.75     120.5  T
     SCC iter.                  ...        0 min,  1.920 sec
     gradient                   ...        0 min,  0.688 sec
 * total energy  :  -446.1702940 Eh     change       -0.5646284E-02 Eh
   gradient norm :     0.0126707 Eh/α   predicted    -0.5667976E-02 (   0.38%)
   displ. norm   :     0.8693344 α      lambda       -0.5997299E-02
   maximum displ.:     0.5793853 α      in ANC's #34, #20, #66, ...

........................................................................
.............................. CYCLE   29 ..............................
........................................................................
   1   -453.2978438 -0.453298E+03  0.499E-03    0.74       0.0  T
   2   -453.2978462 -0.239694E-05  0.281E-03    0.74       2.1  T
   3   -453.2978481 -0.189828E-05  0.167E-03    0.74       3.6  T
   4   -453.2978491 -0.984055E-06  0.110E-03    0.74       5.5  T
   5   -453.2978497 -0.656564E-06  0.400E-04    0.74      15.0  T
   6   -453.2978498 -0.835261E-07  0.144E-04    0.74      41.6  T
   7   -453.2978498 -0.228491E-07  0.480E-05    0.74     124.9  T
     SCC iter.                  ...        0 min,  1.893 sec
     gradient                   ...        0 min,  0.708 sec
 * total energy  :  -446.1754546 Eh     change       -0.5160636E-02 Eh
   gradient norm :     0.0134327 Eh/α   predicted    -0.5264854E-02 (   2.02%)
   displ. norm   :     0.8776280 α      lambda       -0.5757832E-02
   maximum displ.:     0.5826433 α      in ANC's #34, #66, #20, ...

........................................................................
.............................. CYCLE   30 ..............................
........................................................................
   1   -453.3157628 -0.453316E+03  0.419E-03    0.74       0.0  T
   2   -453.3157643 -0.149881E-05  0.233E-03    0.74       2.6  T
   3   -453.3157654 -0.113468E-05  0.142E-03    0.74       4.2  T
   4   -453.3157662 -0.781838E-06  0.924E-04    0.74       6.5  T
   5   -453.3157666 -0.405253E-06  0.320E-04    0.74      18.7  T
   6   -453.3157666 -0.552602E-07  0.109E-04    0.74      55.2  T
   7   -453.3157667 -0.116388E-07  0.493E-05    0.74     121.8  T
     SCC iter.                  ...        0 min,  2.085 sec
     gradient                   ...        0 min,  0.691 sec
 * total energy  :  -446.1806180 Eh     change       -0.5163391E-02 Eh
   gradient norm :     0.0132088 Eh/α   predicted    -0.5096344E-02 (  -1.30%)
   displ. norm   :     0.9028586 α      lambda       -0.5199322E-02
   maximum displ.:     0.6044990 α      in ANC's #34, #20, #66, ...

........................................................................
.............................. CYCLE   31 ..............................
........................................................................
   1   -453.3266285 -0.453327E+03  0.358E-03    0.74       0.0  T
   2   -453.3266297 -0.120299E-05  0.246E-03    0.74       2.4  T
   3   -453.3266314 -0.175037E-05  0.128E-03    0.74       4.7  T
   4   -453.3266317 -0.315595E-06  0.976E-04    0.74       6.1  T
   5   -453.3266322 -0.478077E-06  0.255E-04    0.74      23.5  T
   6   -453.3266322 -0.234497E-07  0.823E-05    0.74      72.9  T
   7   -453.3266322 -0.372950E-08  0.430E-05    0.74     139.5  T
     SCC iter.                  ...        0 min,  1.853 sec
     gradient                   ...        0 min,  0.696 sec
 * total energy  :  -446.1853897 Eh     change       -0.4771687E-02 Eh
   gradient norm :     0.0109319 Eh/α   predicted    -0.4718781E-02 (  -1.11%)
   displ. norm   :     0.9008173 α      lambda       -0.4915994E-02
   maximum displ.:     0.6231503 α      in ANC's #34, #20, #22, ...

........................................................................
.............................. CYCLE   32 ..............................
........................................................................
   1   -453.3423207 -0.453342E+03  0.388E-03    0.74       0.0  T
   2   -453.3423225 -0.181077E-05  0.247E-03    0.74       2.4  T
   3   -453.3423239 -0.133556E-05  0.155E-03    0.74       3.9  T
   4   -453.3423247 -0.808712E-06  0.920E-04    0.74       6.5  T
   5   -453.3423250 -0.338570E-06  0.293E-04    0.74      20.5  T
   6   -453.3423251 -0.386238E-07  0.133E-04    0.74      45.2  T
   7   -453.3423251 -0.139772E-07  0.507E-05    0.74     118.2  T
     SCC iter.                  ...        0 min,  2.140 sec
     gradient                   ...        0 min,  0.685 sec
 * total energy  :  -446.1899542 Eh     change       -0.4564497E-02 Eh
   gradient norm :     0.0092118 Eh/α   predicted    -0.4452589E-02 (  -2.45%)
   displ. norm   :     0.9148355 α      lambda       -0.4576218E-02
   maximum displ.:     0.6266094 α      in ANC's #34, #20, #22, ...

........................................................................
.............................. CYCLE   33 ..............................
........................................................................
   1   -453.3526940 -0.453353E+03  0.371E-03    0.74       0.0  T
   2   -453.3526965 -0.257411E-05  0.231E-03    0.74       2.6  T
   3   -453.3526974 -0.890934E-06  0.134E-03    0.74       4.5  T
   4   -453.3526977 -0.223247E-06  0.974E-04    0.74       6.2  T
   5   -453.3526982 -0.494996E-06  0.343E-04    0.74      17.5  T
   6   -453.3526982 -0.587353E-07  0.151E-04    0.74      39.7  T
   7   -453.3526982 -0.184193E-07  0.612E-05    0.74      98.0  T
     SCC iter.                  ...        0 min,  1.846 sec
     gradient                   ...        0 min,  0.685 sec
 * total energy  :  -446.1941460 Eh     change       -0.4191798E-02 Eh
   gradient norm :     0.0090028 Eh/α   predicted    -0.4203060E-02 (   0.27%)
   displ. norm   :     0.9050117 α      lambda       -0.4375462E-02
   maximum displ.:     0.6239510 α      in ANC's #34, #20, #22, ...

........................................................................
.............................. CYCLE   34 ..............................
........................................................................
   1   -453.3666249 -0.453367E+03  0.400E-03    0.75       0.0  T
   2   -453.3666276 -0.269957E-05  0.235E-03    0.74       2.5  T
   3   -453.3666285 -0.875581E-06  0.144E-03    0.75       4.2  T
   4   -453.3666289 -0.435098E-06  0.982E-04    0.74       6.1  T
   5   -453.3666294 -0.502451E-06  0.400E-04    0.74      15.0  T
   6   -453.3666295 -0.101461E-06  0.161E-04    0.75      37.2  T
   7   -453.3666296 -0.220839E-07  0.605E-05    0.74      99.2  T
     SCC iter.                  ...        0 min,  2.007 sec
     gradient                   ...        0 min,  0.684 sec
 * total energy  :  -446.1980866 Eh     change       -0.3940628E-02 Eh
   gradient norm :     0.0082660 Eh/α   predicted    -0.3979578E-02 (   0.99%)
   displ. norm   :     0.9050111 α      lambda       -0.3908423E-02
   maximum displ.:     0.6218468 α      in ANC's #34, #20, #22, ...

........................................................................
.............................. CYCLE   35 ..............................
........................................................................
   1   -453.3768610 -0.453377E+03  0.336E-03    0.75       0.0  T
   2   -453.3768629 -0.188553E-05  0.213E-03    0.75       2.8  T
   3   -453.3768642 -0.135486E-05  0.112E-03    0.75       5.4  T
   4   -453.3768645 -0.246433E-06  0.801E-04    0.75       7.5  T
   5   -453.3768648 -0.278749E-06  0.331E-04    0.75      18.1  T
   6   -453.3768648 -0.476196E-07  0.135E-04    0.75      44.4  T
   7   -453.3768648 -0.147794E-07  0.580E-05    0.75     103.3  T
     SCC iter.                  ...        0 min,  1.841 sec
     gradient                   ...        0 min,  0.683 sec
 * total energy  :  -446.2017730 Eh     change       -0.3686378E-02 Eh
   gradient norm :     0.0088408 Eh/α   predicted    -0.3554797E-02 (  -3.57%)
   displ. norm   :     0.9035311 α      lambda       -0.3670508E-02
   maximum displ.:     0.6201820 α      in ANC's #34, #20, #22, ...

........................................................................
.............................. CYCLE   36 ..............................
........................................................................
   1   -453.3890673 -0.453389E+03  0.409E-03    0.74       0.0  T
   2   -453.3890695 -0.214752E-05  0.235E-03    0.74       2.6  T
   3   -453.3890698 -0.281661E-06  0.142E-03    0.74       4.2  T
   4   -453.3890699 -0.114037E-06  0.888E-04    0.74       6.8  T
   5   -453.3890703 -0.436823E-06  0.434E-04    0.74      13.8  T
   6   -453.3890705 -0.171142E-06  0.124E-04    0.74      48.3  T
   7   -453.3890705 -0.718410E-08  0.575E-05    0.74     104.3  T
     SCC iter.                  ...        0 min,  1.887 sec
     gradient                   ...        0 min,  0.745 sec
 * total energy  :  -446.2051736 Eh     change       -0.3400567E-02 Eh
   gradient norm :     0.0108446 Eh/α   predicted    -0.3333494E-02 (  -1.97%)
   displ. norm   :     0.8997916 α      lambda       -0.3527496E-02
   maximum displ.:     0.6103260 α      in ANC's #34, #20, #22, ...

........................................................................
.............................. CYCLE   37 ..............................
........................................................................
   1   -453.4006957 -0.453401E+03  0.371E-03    0.74       0.0  T
   2   -453.4006975 -0.182992E-05  0.223E-03    0.74       2.7  T
   3   -453.4006981 -0.580924E-06  0.129E-03    0.74       4.6  T
   4   -453.4006981  0.536204E-08  0.822E-04    0.74       7.3  T
   5   -453.4006984 -0.339050E-06  0.392E-04    0.74      15.3  T
   6   -453.4006985 -0.126103E-06  0.108E-04    0.74      55.5  T
   7   -453.4006985 -0.545225E-08  0.573E-05    0.74     104.6  T
     SCC iter.                  ...        0 min,  1.968 sec
     gradient                   ...        0 min,  0.691 sec
 * total energy  :  -446.2084227 Eh     change       -0.3249075E-02 Eh
   gradient norm :     0.0089002 Eh/α   predicted    -0.3191720E-02 (  -1.77%)
   displ. norm   :     0.9057907 α      lambda       -0.3335024E-02
   maximum displ.:     0.5997910 α      in ANC's #34, #20, #22, ...

........................................................................
.............................. CYCLE   38 ..............................
........................................................................
   1   -453.4044231 -0.453404E+03  0.528E-03    0.74       0.0  T
   2   -453.4044259 -0.272383E-05  0.283E-03    0.74       2.1  T
   3   -453.4044261 -0.204883E-06  0.173E-03    0.74       3.5  T
   4   -453.4044265 -0.459022E-06  0.920E-04    0.74       6.5  T
   5   -453.4044268 -0.319669E-06  0.378E-04    0.74      15.9  T
   6   -453.4044270 -0.124126E-06  0.865E-05    0.74      69.3  T
   7   -453.4044270 -0.314731E-08  0.374E-05    0.74     160.2  T
     SCC iter.                  ...        0 min,  1.902 sec
     gradient                   ...        0 min,  0.713 sec
 * total energy  :  -446.2114102 Eh     change       -0.2987526E-02 Eh
   gradient norm :     0.0098361 Eh/α   predicted    -0.3035621E-02 (   1.61%)
   displ. norm   :     0.8839872 α      lambda       -0.3278752E-02
   maximum displ.:     0.5952637 α      in ANC's #34, #20, #22, ...

........................................................................
.............................. CYCLE   39 ..............................
........................................................................
   1   -453.4240564 -0.453424E+03  0.519E-03    0.74       0.0  T
   2   -453.4240586 -0.223066E-05  0.288E-03    0.74       2.1  T
   3   -453.4240586 -0.501433E-07  0.168E-03    0.74       3.6  T
   4   -453.4240587 -0.851593E-07  0.733E-04    0.74       8.2  T
   5   -453.4240590 -0.269916E-06  0.289E-04    0.74      20.7  T
   6   -453.4240591 -0.827579E-07  0.974E-05    0.74      61.6  T
   7   -453.4240591 -0.652602E-08  0.408E-05    0.74     147.0  T
     SCC iter.                  ...        0 min,  2.135 sec
     gradient                   ...        0 min,  0.696 sec
 * total energy  :  -446.2143558 Eh     change       -0.2945650E-02 Eh
   gradient norm :     0.0087859 Eh/α   predicted    -0.2920428E-02 (  -0.86%)
   displ. norm   :     0.9040768 α      lambda       -0.3002167E-02
   maximum displ.:     0.5956801 α      in ANC's #34, #20, #22, ...

........................................................................
.............................. CYCLE   40 ..............................
........................................................................
   1   -453.4329900 -0.453433E+03  0.337E-03    0.74       0.0  T
   2   -453.4329921 -0.205935E-05  0.187E-03    0.74       3.2  T
   3   -453.4329926 -0.460670E-06  0.110E-03    0.74       5.4  T
   4   -453.4329926 -0.561408E-07  0.749E-04    0.74       8.0  T
   5   -453.4329929 -0.244715E-06  0.313E-04    0.74      19.2  T
   6   -453.4329929 -0.745208E-07  0.884E-05    0.74      67.9  T
   7   -453.4329929 -0.384495E-08  0.480E-05    0.74     125.0  T
     SCC iter.                  ...        0 min,  1.909 sec
     gradient                   ...        0 min,  0.721 sec
 * total energy  :  -446.2171614 Eh     change       -0.2805611E-02 Eh
   gradient norm :     0.0085046 Eh/α   predicted    -0.2728000E-02 (  -2.77%)
   displ. norm   :     0.9211276 α      lambda       -0.2878812E-02
   maximum displ.:     0.6007105 α      in ANC's #34, #20, #22, ...

........................................................................
.............................. CYCLE   41 ..............................
........................................................................
   1   -453.4425525 -0.453443E+03  0.329E-03    0.74       0.0  T
   2   -453.4425536 -0.116413E-05  0.181E-03    0.74       3.3  T
   3   -453.4425538 -0.131232E-06  0.120E-03    0.74       5.0  T
   4   -453.4425540 -0.268893E-06  0.768E-04    0.74       7.8  T
   5   -453.4425544 -0.392142E-06  0.228E-04    0.74      26.3  T
   6   -453.4425545 -0.259644E-07  0.819E-05    0.74      73.2  T
   7   -453.4425545 -0.452997E-08  0.481E-05    0.74     124.8  T
     SCC iter.                  ...        0 min,  2.100 sec
     gradient                   ...        0 min,  0.688 sec
 * total energy  :  -446.2198696 Eh     change       -0.2708184E-02 Eh
   gradient norm :     0.0072539 Eh/α   predicted    -0.2660710E-02 (  -1.75%)
   displ. norm   :     0.9288113 α      lambda       -0.2837416E-02
   maximum displ.:     0.5989935 α      in ANC's #34, #20, #22, ...

........................................................................
.............................. CYCLE   42 ..............................
........................................................................
   1   -453.4509647 -0.453451E+03  0.462E-03    0.74       0.0  T
   2   -453.4509660 -0.129573E-05  0.266E-03    0.74       2.3  T
   3   -453.4509651  0.932404E-06  0.186E-03    0.74       3.2  T
   4   -453.4509662 -0.117176E-05  0.101E-03    0.74       6.0  T
   5   -453.4509670 -0.782755E-06  0.237E-04    0.74      25.3  T
   6   -453.4509670 -0.248531E-07  0.103E-04    0.74      58.4  T
   7   -453.4509670 -0.688885E-08  0.607E-05    0.74      98.8  T
     SCC iter.                  ...        0 min,  1.857 sec
     gradient                   ...        0 min,  0.698 sec
 * total energy  :  -446.2223490 Eh     change       -0.2479392E-02 Eh
   gradient norm :     0.0121900 Eh/α   predicted    -0.2642597E-02 (   6.58%)
   displ. norm   :     0.8983808 α      lambda       -0.2696762E-02
   maximum displ.:     0.5752622 α      in ANC's #34, #20, #22, ...
 * RMSD in coord.:     1.0812764 α      energy gain  -0.1086393E+00 Eh

generating ANC from model Hessian ...
Using Lindh-Hessian (1995)
 Shifting diagonal of input Hessian by    1.0002024523105058E-002
 Lowest  eigenvalues of input Hessian
    0.010000    0.010001    0.010001    0.000000    0.000000    0.000000
    0.000000    0.000000    0.000000    0.010003    0.010005    0.010008
    0.010008    0.010008    0.010014    0.010027    0.010041    0.010052
 Highest eigenvalues
    2.313602    2.325992    2.326360    2.808562    2.827051    2.827386


........................................................................
.............................. CYCLE   43 ..............................
........................................................................
   1   -453.4585339 -0.453459E+03  0.342E-03    0.74       0.0  T
   2   -453.4585347 -0.776703E-06  0.218E-03    0.74       2.7  T
   3   -453.4585348 -0.438508E-07  0.146E-03    0.74       4.1  T
   4   -453.4585355 -0.686804E-06  0.789E-04    0.74       7.6  T
   5   -453.4585359 -0.404999E-06  0.207E-04    0.74      29.0  T
   6   -453.4585359 -0.210766E-07  0.778E-05    0.74      77.1  T
   7   -453.4585359 -0.206143E-08  0.458E-05    0.74     131.0  T
     SCC iter.                  ...        0 min,  2.146 sec
     gradient                   ...        0 min,  0.689 sec
 * total energy  :  -446.2248120 Eh     change       -0.2462987E-02 Eh
   gradient norm :     0.0064081 Eh/α   predicted     0.0000000E+00 (-100.00%)
   displ. norm   :     0.2398795 α      lambda       -0.6930372E-03
   maximum displ.:     0.1139119 α      in ANC's #31, #22, #21, ...

........................................................................
.............................. CYCLE   44 ..............................
........................................................................
   1   -453.4611423 -0.453461E+03  0.117E-03    0.74       0.0  T
   2   -453.4611424 -0.155578E-06  0.659E-04    0.74       9.1  T
   3   -453.4611425 -0.698046E-07  0.510E-04    0.74      11.8  T
   4   -453.4611426 -0.123827E-06  0.219E-04    0.74      27.4  T
   5   -453.4611427 -0.111572E-07  0.724E-05    0.74      82.9  T
   6   -453.4611427 -0.238174E-08  0.315E-05    0.74     190.2  T
     SCC iter.                  ...        0 min,  1.618 sec
     gradient                   ...        0 min,  0.685 sec
 * total energy  :  -446.2254694 Eh     change       -0.6573521E-03 Eh
   gradient norm :     0.0035621 Eh/α   predicted    -0.3667963E-03 ( -44.20%)
   displ. norm   :     0.7892850 α      lambda       -0.2102681E-02
   maximum displ.:     0.3510473 α      in ANC's #31, #22, #21, ...

........................................................................
.............................. CYCLE   45 ..............................
........................................................................
   1   -453.4676066 -0.453468E+03  0.327E-03    0.74       0.0  T
   2   -453.4676079 -0.127320E-05  0.194E-03    0.74       3.1  T
   3   -453.4676090 -0.109314E-05  0.139E-03    0.74       4.3  T
   4   -453.4676099 -0.918676E-06  0.639E-04    0.74       9.4  T
   5   -453.4676100 -0.795099E-07  0.215E-04    0.74      27.9  T
   6   -453.4676100 -0.205350E-07  0.951E-05    0.74      63.1  T
   7   -453.4676100 -0.678290E-08  0.412E-05    0.74     145.5  T
     SCC iter.                  ...        0 min,  1.939 sec
     gradient                   ...        0 min,  0.701 sec
 * total energy  :  -446.2273494 Eh     change       -0.1880057E-02 Eh
   gradient norm :     0.0088219 Eh/α   predicted    -0.1706298E-02 (  -9.24%)
   displ. norm   :     0.8927645 α      lambda       -0.2280494E-02
   maximum displ.:     0.3859168 α      in ANC's #31, #22, #21, ...

........................................................................
.............................. CYCLE   46 ..............................
........................................................................
   1   -453.4728648 -0.453473E+03  0.279E-03    0.73       0.0  T
   2   -453.4728658 -0.973448E-06  0.189E-03    0.73       3.2  T
   3   -453.4728673 -0.151171E-05  0.107E-03    0.73       5.6  T
   4   -453.4728677 -0.442734E-06  0.635E-04    0.73       9.4  T
   5   -453.4728678 -0.110201E-06  0.191E-04    0.73      31.4  T
   6   -453.4728678 -0.142788E-07  0.844E-05    0.73      71.0  T
     SCC iter.                  ...        0 min,  1.590 sec
     gradient                   ...        0 min,  0.689 sec
 * total energy  :  -446.2293069 Eh     change       -0.1957520E-02 Eh
   gradient norm :     0.0123934 Eh/α   predicted    -0.2049061E-02 (   4.68%)
   displ. norm   :     0.8793303 α      lambda       -0.2154945E-02
   maximum displ.:     0.3951239 α      in ANC's #31, #22, #21, ...

........................................................................
.............................. CYCLE   47 ..............................
........................................................................
   1   -453.4776779 -0.453478E+03  0.238E-03    0.73       0.0  T
   2   -453.4776787 -0.793387E-06  0.159E-03    0.73       3.8  T
   3   -453.4776795 -0.779211E-06  0.896E-04    0.73       6.7  T
   4   -453.4776797 -0.235436E-06  0.629E-04    0.73       9.5  T
   5   -453.4776799 -0.155708E-06  0.164E-04    0.73      36.6  T
   6   -453.4776799 -0.100559E-07  0.750E-05    0.73      79.9  T
     SCC iter.                  ...        0 min,  1.621 sec
     gradient                   ...        0 min,  0.716 sec
 * total energy  :  -446.2311647 Eh     change       -0.1857785E-02 Eh
   gradient norm :     0.0108033 Eh/α   predicted    -0.1910599E-02 (   2.84%)
   displ. norm   :     0.8591645 α      lambda       -0.2249917E-02
   maximum displ.:     0.3841219 α      in ANC's #31, #21, #22, ...

........................................................................
.............................. CYCLE   48 ..............................
........................................................................
   1   -453.4836190 -0.453484E+03  0.276E-03    0.73       0.0  T
   2   -453.4836201 -0.110601E-05  0.155E-03    0.73       3.9  T
   3   -453.4836203 -0.216835E-06  0.993E-04    0.73       6.0  T
   4   -453.4836205 -0.221603E-06  0.708E-04    0.73       8.5  T
   5   -453.4836208 -0.286640E-06  0.178E-04    0.73      33.7  T
   6   -453.4836208 -0.138334E-07  0.883E-05    0.73      67.9  T
     SCC iter.                  ...        0 min,  1.880 sec
     gradient                   ...        0 min,  0.696 sec
 * total energy  :  -446.2329359 Eh     change       -0.1771157E-02 Eh
   gradient norm :     0.0069925 Eh/α   predicted    -0.1955363E-02 (  10.40%)
   displ. norm   :     0.8691570 α      lambda       -0.1946439E-02
   maximum displ.:     0.3760644 α      in ANC's #31, #22, #21, ...

........................................................................
.............................. CYCLE   49 ..............................
........................................................................
   1   -453.4905029 -0.453491E+03  0.206E-03    0.73       0.0  T
   2   -453.4905037 -0.830877E-06  0.116E-03    0.73       5.2  T
   3   -453.4905040 -0.231188E-06  0.662E-04    0.73       9.1  T
   4   -453.4905040 -0.101742E-07  0.498E-04    0.73      12.0  T
   5   -453.4905041 -0.123052E-06  0.173E-04    0.73      34.8  T
   6   -453.4905041 -0.185916E-07  0.555E-05    0.73     108.2  T
     SCC iter.                  ...        0 min,  1.611 sec
     gradient                   ...        0 min,  0.695 sec
 * total energy  :  -446.2346905 Eh     change       -0.1754651E-02 Eh
   gradient norm :     0.0054032 Eh/α   predicted    -0.1708424E-02 (  -2.63%)
   displ. norm   :     0.9097664 α      lambda       -0.1803174E-02
   maximum displ.:     0.3940261 α      in ANC's #31, #22, #21, ...

........................................................................
.............................. CYCLE   50 ..............................
........................................................................
   1   -453.4980546 -0.453498E+03  0.220E-03    0.73       0.0  T
   2   -453.4980556 -0.103997E-05  0.115E-03    0.73       5.2  T
   3   -453.4980559 -0.265747E-06  0.629E-04    0.73       9.5  T
   4   -453.4980559 -0.183424E-07  0.382E-04    0.73      15.7  T
   5   -453.4980559 -0.243786E-07  0.188E-04    0.73      31.9  T
   6   -453.4980559 -0.313826E-07  0.578E-05    0.73     103.8  T
     SCC iter.                  ...        0 min,  1.657 sec
     gradient                   ...        0 min,  0.723 sec
 * total energy  :  -446.2363519 Eh     change       -0.1661414E-02 Eh
   gradient norm :     0.0050667 Eh/α   predicted    -0.1647811E-02 (  -0.82%)
   displ. norm   :     0.9172870 α      lambda       -0.1777123E-02
   maximum displ.:     0.3803838 α      in ANC's #31, #22, #21, ...

........................................................................
.............................. CYCLE   51 ..............................
........................................................................
   1   -453.5064950 -0.453506E+03  0.261E-03    0.73       0.0  T
   2   -453.5064963 -0.135245E-05  0.135E-03    0.73       4.4  T
   3   -453.5064967 -0.395492E-06  0.762E-04    0.73       7.9  T
   4   -453.5064968 -0.549365E-07  0.426E-04    0.73      14.1  T
   5   -453.5064968 -0.245336E-08  0.241E-04    0.73      24.8  T
   6   -453.5064969 -0.561291E-07  0.671E-05    0.73      89.4  T
   7   -453.5064969 -0.346495E-08  0.273E-05    0.73     219.7  T
     SCC iter.                  ...        0 min,  1.885 sec
     gradient                   ...        0 min,  0.686 sec
 * total energy  :  -446.2379332 Eh     change       -0.1581310E-02 Eh
   gradient norm :     0.0056061 Eh/α   predicted    -0.1636215E-02 (   3.47%)
   displ. norm   :     0.9108501 α      lambda       -0.1652453E-02
   maximum displ.:     0.3776238 α      in ANC's #31, #22, #21, ...

........................................................................
.............................. CYCLE   52 ..............................
........................................................................
   1   -453.5127331 -0.453513E+03  0.233E-03    0.73       0.0  T
   2   -453.5127341 -0.103762E-05  0.118E-03    0.73       5.1  T
   3   -453.5127344 -0.324070E-06  0.714E-04    0.73       8.4  T
   4   -453.5127345 -0.845451E-07  0.379E-04    0.73      15.8  T
   5   -453.5127345 -0.219848E-08  0.217E-04    0.73      27.6  T
   6   -453.5127346 -0.448305E-07  0.564E-05    0.73     106.4  T
   7   -453.5127346 -0.206398E-08  0.264E-05    0.73     227.2  T
     SCC iter.                  ...        0 min,  1.866 sec
     gradient                   ...        0 min,  0.712 sec
 * total energy  :  -446.2394638 Eh     change       -0.1530507E-02 Eh
   gradient norm :     0.0047150 Eh/α   predicted    -0.1511710E-02 (  -1.23%)
   displ. norm   :     0.9289050 α      lambda       -0.1506889E-02
   maximum displ.:     0.3681821 α      in ANC's #31, #21, #22, ...

........................................................................
.............................. CYCLE   53 ..............................
........................................................................
   1   -453.5172911 -0.453517E+03  0.204E-03    0.73       0.0  T
   2   -453.5172919 -0.794229E-06  0.105E-03    0.73       5.7  T
   3   -453.5172922 -0.245492E-06  0.611E-04    0.73       9.8  T
   4   -453.5172922 -0.458529E-07  0.320E-04    0.73      18.7  T
   5   -453.5172922  0.818204E-09  0.188E-04    0.73      31.8  T
   6   -453.5172922 -0.355402E-07  0.475E-05    0.73     126.2  T
     SCC iter.                  ...        0 min,  1.809 sec
     gradient                   ...        0 min,  0.698 sec
 * total energy  :  -446.2408882 Eh     change       -0.1424416E-02 Eh
   gradient norm :     0.0036594 Eh/α   predicted    -0.1403575E-02 (  -1.46%)
   displ. norm   :     0.9315915 α      lambda       -0.1398558E-02
   maximum displ.:     0.3518742 α      in ANC's #31, #21, #22, ...

........................................................................
.............................. CYCLE   54 ..............................
........................................................................
   1   -453.5221207 -0.453522E+03  0.172E-03    0.73       0.0  T
   2   -453.5221213 -0.592146E-06  0.900E-04    0.73       6.7  T
   3   -453.5221215 -0.198203E-06  0.501E-04    0.73      12.0  T
   4   -453.5221216 -0.185457E-07  0.281E-04    0.73      21.3  T
   5   -453.5221216 -0.775884E-08  0.171E-04    0.73      35.2  T
   6   -453.5221216 -0.306765E-07  0.414E-05    0.73     144.9  T
     SCC iter.                  ...        0 min,  1.587 sec
     gradient                   ...        0 min,  0.689 sec
 * total energy  :  -446.2422206 Eh     change       -0.1332392E-02 Eh
   gradient norm :     0.0033002 Eh/α   predicted    -0.1306161E-02 (  -1.97%)
   displ. norm   :     0.9266963 α      lambda       -0.1300943E-02
   maximum displ.:     0.3317667 α      in ANC's #31, #21, #22, ...

........................................................................
.............................. CYCLE   55 ..............................
........................................................................
   1   -453.5270225 -0.453527E+03  0.143E-03    0.73       0.0  T
   2   -453.5270229 -0.356091E-06  0.737E-04    0.73       8.1  T
   3   -453.5270230 -0.114633E-06  0.453E-04    0.73      13.2  T
   4   -453.5270230 -0.329896E-07  0.259E-04    0.73      23.2  T
   5   -453.5270230 -0.258079E-07  0.109E-04    0.73      54.9  T
   6   -453.5270231 -0.867010E-08  0.229E-05    0.73     261.6  T
     SCC iter.                  ...        0 min,  1.764 sec
     gradient                   ...        0 min,  0.701 sec
 * total energy  :  -446.2434619 Eh     change       -0.1241326E-02 Eh
   gradient norm :     0.0032306 Eh/α   predicted    -0.1209076E-02 (  -2.60%)
   displ. norm   :     0.9253993 α      lambda       -0.1212309E-02
   maximum displ.:     0.3279628 α      in ANC's #21, #20, #22, ...

........................................................................
.............................. CYCLE   56 ..............................
........................................................................
   1   -453.5316391 -0.453532E+03  0.137E-03    0.73       0.0  T
   2   -453.5316394 -0.336296E-06  0.715E-04    0.73       8.4  T
   3   -453.5316395 -0.100697E-06  0.451E-04    0.73      13.3  T
   4   -453.5316395 -0.427580E-07  0.281E-04    0.73      21.4  T
   5   -453.5316396 -0.301425E-07  0.971E-05    0.73      61.7  T
   6   -453.5316396 -0.647907E-08  0.388E-05    0.73     154.4  T
     SCC iter.                  ...        0 min,  1.573 sec
     gradient                   ...        0 min,  0.686 sec
 * total energy  :  -446.2446182 Eh     change       -0.1156274E-02 Eh
   gradient norm :     0.0030232 Eh/α   predicted    -0.1125248E-02 (  -2.68%)
   displ. norm   :     0.9240963 α      lambda       -0.1125446E-02
   maximum displ.:     0.3310530 α      in ANC's #21, #20, #22, ...

........................................................................
.............................. CYCLE   57 ..............................
........................................................................
   1   -453.5363507 -0.453536E+03  0.135E-03    0.73       0.0  T
   2   -453.5363510 -0.344397E-06  0.716E-04    0.73       8.4  T
   3   -453.5363511 -0.976352E-07  0.446E-04    0.73      13.4  T
   4   -453.5363512 -0.354634E-07  0.297E-04    0.73      20.2  T
   5   -453.5363512 -0.391796E-07  0.996E-05    0.73      60.2  T
   6   -453.5363512 -0.783626E-08  0.432E-05    0.73     139.0  T
     SCC iter.                  ...        0 min,  1.601 sec
     gradient                   ...        0 min,  0.719 sec
 * total energy  :  -446.2456923 Eh     change       -0.1074176E-02 Eh
   gradient norm :     0.0024898 Eh/α   predicted    -0.1043270E-02 (  -2.88%)
[...]
    36   6 C       40   7 N                                       1.3543608
    39   6 C       40   7 N                                       1.3557387
     1   6 C       41   1 H                                       1.0855454
     3   6 C       42   1 H                                       1.0784687
     4   6 C       43   1 H                                       1.0779823
     6   7 N       44   1 H                                       1.0145823
     9   6 C       45   1 H                                       1.0846177
    10   6 C       46   1 H                                       1.0830891
    12   7 N       47   1 H                                       1.0129126
    13   6 C       48   1 H                                       1.0960868
    13   6 C       49   1 H                                       1.0900207
    13   6 C       50   1 H                                       1.0907217
    14   6 C       51   1 H                                       1.0849968
    15   6 C       52   1 H                                       1.0846409
    17   6 C       53   1 H                                       1.0779725
    18   6 C       54   1 H                                       1.0783286
    23   6 C       55   1 H                                       1.0781540
    24   6 C       56   1 H                                       1.0778366
    26   7 N       57   1 H                                       1.0147650
    29   6 C       58   1 H                                       1.0846098
    30   6 C       59   1 H                                       1.0831110
    32   7 N       60   1 H                                       1.0128790 (min)
    33   6 C       61   1 H                                       1.0907537
    33   6 C       62   1 H                                       1.0960731
    33   6 C       63   1 H                                       1.0900233
    34   6 C       64   1 H                                       1.0849792
    35   6 C       65   1 H                                       1.0846282
    37   6 C       66   1 H                                       1.0781579
    38   6 C       67   1 H                                       1.0789448
    68   6 C       69   6 C                                       1.3892749
    69   6 C       70   6 C                                       1.4227699
    70   6 C       71   6 C                                       1.3670611
    71   6 C       72   6 C                                       1.4234989
    69   6 C       73   7 N                                       1.3664128
    72   6 C       73   7 N                                       1.3666048
    72   6 C       74   6 C                                       1.4005562
    75   6 C       76   6 C                                       1.3962612
    76   6 C       77   6 C                                       1.3843253
    77   6 C       78   6 C                                       1.3978918
    78   6 C       79   7 N                                       1.3870316
    79   7 N       80   6 C                                       1.4566934
    78   6 C       81   6 C                                       1.4003549
    75   6 C       82   6 C                                       1.3976806
    81   6 C       82   6 C                                       1.3821686
    74   6 C       83   6 C                                       1.3975715
    83   6 C       84   6 C                                       1.4515011
    84   6 C       85   6 C                                       1.3494214
    83   6 C       86   7 N                                       1.3620683
    85   6 C       87   6 C                                       1.4497032
    86   7 N       87   6 C                                       1.3482039
    87   6 C       88   6 C                                       1.4101014
    88   6 C       89   6 C                                       1.4085056
    89   6 C       90   6 C                                       1.4194217
    90   6 C       91   6 C                                       1.3680160
    91   6 C       92   6 C                                       1.4217805
    89   6 C       93   7 N                                       1.3627085
    92   6 C       93   7 N                                       1.3703907
    92   6 C       94   6 C                                       1.4001367
    95   6 C       96   6 C                                       1.3962612
    96   6 C       97   6 C                                       1.3844460
    97   6 C       98   6 C                                       1.3979863
    98   6 C       99   7 N                                       1.3866885
    99   7 N      100   6 C                                       1.4566163
    98   6 C      101   6 C                                       1.4004069
    95   6 C      102   6 C                                       1.3981040
   101   6 C      102   6 C                                       1.3818570
    94   6 C      103   6 C                                       1.3996863
   104   6 C      105   6 C                                       1.3486648
    68   6 C      106   6 C                                       1.3888498
   105   6 C      106   6 C                                       1.4518965
   103   6 C      107   7 N                                       1.3544478
   106   6 C      107   7 N                                       1.3557087
    68   6 C      108   1 H                                       1.0855751
    70   6 C      109   1 H                                       1.0784753
    71   6 C      110   1 H                                       1.0779915
    73   7 N      111   1 H                                       1.0145985
    76   6 C      112   1 H                                       1.0846235
    77   6 C      113   1 H                                       1.0830987
    79   7 N      114   1 H                                       1.0128933
    80   6 C      115   1 H                                       1.0961191
    80   6 C      116   1 H                                       1.0900234
    80   6 C      117   1 H                                       1.0907443
    81   6 C      118   1 H                                       1.0849968
    82   6 C      119   1 H                                       1.0846457
    84   6 C      120   1 H                                       1.0779691
    85   6 C      121   1 H                                       1.0783200
    90   6 C      122   1 H                                       1.0781394
    91   6 C      123   1 H                                       1.0778276
    93   7 N      124   1 H                                       1.0147777
    96   6 C      125   1 H                                       1.0846077
    97   6 C      126   1 H                                       1.0831176
    99   7 N      127   1 H                                       1.0129151
   100   6 C      128   1 H                                       1.0907492
   100   6 C      129   1 H                                       1.0961120
   100   6 C      130   1 H                                       1.0900531
   101   6 C      131   1 H                                       1.0849838
   102   6 C      132   1 H                                       1.0846397
   104   6 C      133   1 H                                       1.0781773
   105   6 C      134   1 H                                       1.0789608
   135   6 C      136   6 C                                       1.2226938
   137   6 C      138   6 C                                       1.2228007
   139   6 C      140   6 C                                       1.2230607
   141   6 C      142   6 C                                       1.2230756
   143   6 C      144   6 C                                       1.2227697
   145   6 C      146   6 C                                       1.2226575
   147   6 C      148   6 C                                       1.4089070
   148   6 C      149   6 C                                       1.4181685
   149   6 C      150   6 C                                       1.3688783
   150   6 C      151   6 C                                       1.4207296
   148   6 C      152   7 N                                       1.3628654
   151   6 C      152   7 N                                       1.3697615
   151   6 C      153   6 C                                       1.4014694
   154   6 C      155   6 C                                       1.3977465
   155   6 C      156   6 C                                       1.3819289
   156   6 C      157   6 C                                       1.4003457
   157   6 C      158   7 N                                       1.3872891
   158   7 N      159   6 C                                       1.4568232
   157   6 C      160   6 C                                       1.3977601
   154   6 C      161   6 C                                       1.3960651
   160   6 C      161   6 C                                       1.3845314
   153   6 C      162   6 C                                       1.3963470
   162   6 C      163   6 C                                       1.4514904
   163   6 C      164   6 C                                       1.3495310
   162   6 C      165   7 N                                       1.3623190
   164   6 C      166   6 C                                       1.4489749
   165   7 N      166   6 C                                       1.3480922
   166   6 C      167   6 C                                       1.4099606
   167   6 C      168   6 C                                       1.4090854
   168   6 C      169   6 C                                       1.4181305
   169   6 C      170   6 C                                       1.3687334
   170   6 C      171   6 C                                       1.4207617
   168   6 C      172   7 N                                       1.3627046
   171   6 C      172   7 N                                       1.3698607
   171   6 C      173   6 C                                       1.4013952
   174   6 C      175   6 C                                       1.3962257
   175   6 C      176   6 C                                       1.3842638
   176   6 C      177   6 C                                       1.3978654
   177   6 C      178   7 N                                       1.3871638
   178   7 N      179   6 C                                       1.4569855
   177   6 C      180   6 C                                       1.4002868
   174   6 C      181   6 C                                       1.3978152
   180   6 C      181   6 C                                       1.3820109
   173   6 C      182   6 C                                       1.3966299
   182   6 C      183   6 C                                       1.4514793
   183   6 C      184   6 C                                       1.3495624
   147   6 C      185   6 C                                       1.4097857
   184   6 C      185   6 C                                       1.4489252
   182   6 C      186   7 N                                       1.3620134
   185   6 C      186   7 N                                       1.3484026
   149   6 C      187   1 H                                       1.0781294
   150   6 C      188   1 H                                       1.0778028
   152   7 N      189   1 H                                       1.0145785
   155   6 C      190   1 H                                       1.0844706
   156   6 C      191   1 H                                       1.0849631
   158   7 N      192   1 H                                       1.0129812
   159   6 C      193   1 H                                       1.0961557
   159   6 C      194   1 H                                       1.0900290
   159   6 C      195   1 H                                       1.0907629
   160   6 C      196   1 H                                       1.0831113
   161   6 C      197   1 H                                       1.0847393
   163   6 C      198   1 H                                       1.0779424
   164   6 C      199   1 H                                       1.0783736
   169   6 C      200   1 H                                       1.0780592
   170   6 C      201   1 H                                       1.0776969
   172   7 N      202   1 H                                       1.0145414
   175   6 C      203   1 H                                       1.0845872
   176   6 C      204   1 H                                       1.0831023
   178   7 N      205   1 H                                       1.0129868
   179   6 C      206   1 H                                       1.0907432
   179   6 C      207   1 H                                       1.0900088
   179   6 C      208   1 H                                       1.0959928
   180   6 C      209   1 H                                       1.0849732
   181   6 C      210   1 H                                       1.0846302
   183   6 C      211   1 H                                       1.0779899
   184   6 C      212   1 H                                       1.0783296
   213   6 C      214   6 C                                       1.4090930
   214   6 C      215   6 C                                       1.4181669
   215   6 C      216   6 C                                       1.3687919
   216   6 C      217   6 C                                       1.4207277
   214   6 C      218   7 N                                       1.3627013
   217   6 C      218   7 N                                       1.3698174
   217   6 C      219   6 C                                       1.4014275
   220   6 C      221   6 C                                       1.3977979
   221   6 C      222   6 C                                       1.3818837
   222   6 C      223   6 C                                       1.4004055
   223   6 C      224   7 N                                       1.3869212
   224   7 N      225   6 C                                       1.4568370
   223   6 C      226   6 C                                       1.3978544
   220   6 C      227   6 C                                       1.3961745
   226   6 C      227   6 C                                       1.3844205
   219   6 C      228   6 C                                       1.3964553
   228   6 C      229   6 C                                       1.4514947
   229   6 C      230   6 C                                       1.3494505
   228   6 C      231   7 N                                       1.3621872
   230   6 C      232   6 C                                       1.4490461
   231   7 N      232   6 C                                       1.3483237
   232   6 C      233   6 C                                       1.4097834
   233   6 C      234   6 C                                       1.4088864
   234   6 C      235   6 C                                       1.4181891
   235   6 C      236   6 C                                       1.3687720
   236   6 C      237   6 C                                       1.4207604
   234   6 C      238   7 N                                       1.3628247
   237   6 C      238   7 N                                       1.3698160
   237   6 C      239   6 C                                       1.4014641
   240   6 C      241   6 C                                       1.3962418
   241   6 C      242   6 C                                       1.3842643
   242   6 C      243   6 C                                       1.3978572
   243   6 C      244   7 N                                       1.3872095
   244   7 N      245   6 C                                       1.4569956 (max)
   243   6 C      246   6 C                                       1.4002743
   240   6 C      247   6 C                                       1.3977260
   246   6 C      247   6 C                                       1.3821072
   239   6 C      248   6 C                                       1.3964991
   248   6 C      249   6 C                                       1.4514293
   249   6 C      250   6 C                                       1.3496446
   213   6 C      251   6 C                                       1.4100064
   250   6 C      251   6 C                                       1.4489084
   248   6 C      252   7 N                                       1.3622313
   251   6 C      252   7 N                                       1.3480987
   215   6 C      253   1 H                                       1.0780803
   216   6 C      254   1 H                                       1.0777633
   218   7 N      255   1 H                                       1.0145703
   221   6 C      256   1 H                                       1.0844712
   222   6 C      257   1 H                                       1.0849471
   224   7 N      258   1 H                                       1.0129330
   225   6 C      259   1 H                                       1.0960571
   225   6 C      260   1 H                                       1.0899939
   225   6 C      261   1 H                                       1.0907626
   226   6 C      262   1 H                                       1.0831053
   227   6 C      263   1 H                                       1.0847325
   229   6 C      264   1 H                                       1.0779199
   230   6 C      265   1 H                                       1.0783140
   235   6 C      266   1 H                                       1.0781113
   236   6 C      267   1 H                                       1.0777184
   238   7 N      268   1 H                                       1.0145794
   241   6 C      269   1 H                                       1.0845876
   242   6 C      270   1 H                                       1.0830910
   244   7 N      271   1 H                                       1.0129806
   245   6 C      272   1 H                                       1.0907592
   245   6 C      273   1 H                                       1.0899971
   245   6 C      274   1 H                                       1.0959927
   246   6 C      275   1 H                                       1.0849770
   247   6 C      276   1 H                                       1.0846191
   249   6 C      277   1 H                                       1.0780224
   250   6 C      278   1 H                                       1.0783856

 * 4 distinct bonds (by element types)

   Z      Z             #   av. dist./Å        max./Å        min./Å
   1 H    6 C          90     1.0842744     1.0961557     1.0776969
   6 C    6 C         132     1.3927332     1.4518965     1.2226575
   1 H    7 N          16     1.0137797     1.0147777     1.0128790
   6 C    7 N          48     1.3811644     1.4569956     1.3480922


optimized geometry written to: xtbopt.xyz


           -------------------------------------------------
          | TOTAL ENERGY             -446.265295098838 Eh   |
          | GRADIENT NORM               0.000437439468 Eh/α |
          | HOMO-LUMO GAP               0.708053587450 eV   |
           -------------------------------------------------

------------------------------------------------------------------------
 * finished run on 2022/07/30 at 23:09:30.063     
------------------------------------------------------------------------
 total:
 * wall-time:     0 d,  0 h,  7 min,  3.544 sec
 *  cpu-time:     0 d,  0 h,  7 min,  1.502 sec
 * ratio c/w:     0.995 speedup
 SCF:
 * wall-time:     0 d,  0 h,  0 min, 10.228 sec
 *  cpu-time:     0 d,  0 h,  0 min, 10.173 sec
 * ratio c/w:     0.995 speedup
 ANC optimizer:
 * wall-time:     0 d,  0 h,  6 min, 53.041 sec
 *  cpu-time:     0 d,  0 h,  6 min, 51.059 sec
 * ratio c/w:     0.995 speedup

