      -----------------------------------------------------------      
     |                   =====================                   |     
     |                           x T B                           |     
     |                   =====================                   |     
     |                         S. Grimme                         |     
     |          Mulliken Center for Theoretical Chemistry        |     
     |                    University of Bonn                     |     
      -----------------------------------------------------------      

   * xtb version 6.5.1 (b24c23e) compiled by 'conda@728c89f4b128' on 2022-07-12

   xtb is free software: you can redistribute it and/or modify it under
   the terms of the GNU Lesser General Public License as published by
   the Free Software Foundation, either version 3 of the License, or
   (at your option) any later version.
   
   xtb is distributed in the hope that it will be useful,
   but WITHOUT ANY WARRANTY; without even the implied warranty of
   MERCHANTABILITY or FITNESS FOR A PARTICULAR PURPOSE.  See the
   GNU Lesser General Public License for more details.
   
   Cite this work as:
   * C. Bannwarth, E. Caldeweyher, S. Ehlert, A. Hansen, P. Pracht,
     J. Seibert, S. Spicher, S. Grimme, WIREs Comput. Mol. Sci., 2020, 11,
     e01493. DOI: 10.1002/wcms.1493
   
   for GFN2-xTB:
   * C. Bannwarth, S. Ehlert and S. Grimme., J. Chem. Theory Comput., 2019,
     15, 1652-1671. DOI: 10.1021/acs.jctc.8b01176
   for GFN1-xTB:
   * S. Grimme, C. Bannwarth, P. Shushkov, J. Chem. Theory Comput., 2017,
     13, 1989-2009. DOI: 10.1021/acs.jctc.7b00118
   for GFN0-xTB:
   * P. Pracht, E. Caldeweyher, S. Ehlert, S. Grimme, ChemRxiv, 2019, preprint.
     DOI: 10.26434/chemrxiv.8326202.v1
   for GFN-FF:
   * S. Spicher and S. Grimme, Angew. Chem. Int. Ed., 2020, 59, 15665-15673.
     DOI: 10.1002/anie.202004239
   
   for ALPB and GBSA implicit solvation:
   * S. Ehlert, M. Stahn, S. Spicher, S. Grimme, J. Chem. Theory Comput.,
     2021, 17, 4250-4261. DOI: 10.1021/acs.jctc.1c00471
   
   for DFT-D4:
   * E. Caldeweyher, C. Bannwarth and S. Grimme, J. Chem. Phys., 2017,
     147, 034112. DOI: 10.1063/1.4993215
   * E. Caldeweyher, S. Ehlert, A. Hansen, H. Neugebauer, S. Spicher,
     C. Bannwarth and S. Grimme, J. Chem. Phys., 2019, 150, 154122.
     DOI: 10.1063/1.5090222
   * E. Caldeweyher, J.-M. Mewes, S. Ehlert and S. Grimme, Phys. Chem. Chem. Phys.
     2020, 22, 8499-8512. DOI: 10.1039/D0CP00502A
   
   for sTDA-xTB:
   * S. Grimme and C. Bannwarth, J. Chem. Phys., 2016, 145, 054103.
     DOI: 10.1063/1.4959605
   
   in the mass-spec context:
   * V. Asgeirsson, C. Bauer and S. Grimme, Chem. Sci., 2017, 8, 4879.
     DOI: 10.1039/c7sc00601b
   * J. Koopman and S. Grimme, ACS Omega 2019, 4, 12, 15120-15133.
     DOI: 10.1021/acsomega.9b02011
   
   for metadynamics refer to:
   * S. Grimme, J. Chem. Theory Comput., 2019, 155, 2847-2862
     DOI: 10.1021/acs.jctc.9b00143
   
   for SPH calculations refer to:
   * S. Spicher and S. Grimme, J. Chem. Theory Comput., 2021, 17, 1701-1714
     DOI: 10.1021/acs.jctc.0c01306
   
   with help from (in alphabetical order)
   P. Atkinson, C. Bannwarth, F. Bohle, G. Brandenburg, E. Caldeweyher
   M. Checinski, S. Dohm, S. Ehlert, S. Ehrlich, I. Gerasimov, C. Hölzer
   A. Katbashev, J. Koopman, C. Lavigne, S. Lehtola, F. März, M. Müller,
   F. Musil, H. Neugebauer, J. Pisarek, C. Plett, P. Pracht, F. Pultar,
   J. Seibert, P. Shushkov, S. Spicher, M. Stahn, M. Steiner, T. Strunk,
   J. Stückrath, T. Rose, and J. Unsleber
   
 * started run on 2022/07/29 at 14:14:21.515     

           -------------------------------------------------
          |                Calculation Setup                |
           -------------------------------------------------

          program call               : xtb xtbopt.xyz --gfn 1 --vipea
          hostname                   : cx3-6-25.cx3.hpc.ic.ac.uk
          coordinate file            : xtbopt.xyz
          omp threads                :                     1

   ID    Z sym.   atoms
    1    6 C      1-5, 7-11, 13-17, 19-24, 26-30, 32-37, 62-66, 68-72, 74-78,
                  80-85, 87-91, 93-98, 123-139, 141-145, 147-151, 153-158,
                  160-164, 166-171, 195-199, 201-205, 207-211, 213-218,
                  220-224, 226-231
    2    7 N      6, 12, 18, 25, 31, 38, 67, 73, 79, 86, 92, 99, 140, 146,
                  152, 159, 165, 172, 200, 206, 212, 219, 225, 232
    3    1 H      39-61, 100-122, 173-194, 233-254

           -------------------------------------------------
          |                 I P E A - x T B                 |
           -------------------------------------------------

        Reference                      10.1039/c7sc00601b
      * Hamiltonian:
        H0-scaling (s, p, d)           2.150000    2.300000    2.000000
        zeta-weighting                 0.000000
      * Dispersion:
        s8                             2.400000
        a1                             0.630000
        a2                             5.000000
        s9                             0.000000
      * Repulsion:
        kExp                           1.500000
        rExp                           1.000000
      * Coulomb:
        alpha                          1.000000
        third order                    atomic
        anisotropic                    false
      * Halogen bond correction:
        rad-scale                      1.300000
        damping                        0.440000


          ...................................................
          :                      SETUP                      :
          :.................................................:
          :  # basis functions                1000          :
          :  # atomic orbitals                1000          :
          :  # shells                          672          :
          :  # electrons                       770          :
          :  # halogen bonds                     0          :
          :  max. iterations                   250          :
          :  Hamiltonian                  GFN1-xTB          :
          :  restarted?                      false          :
          :  GBSA solvation                  false          :
          :  PC potential                    false          :
          :  electronic temp.          300.0000000     K    :
          :  accuracy                    1.0000000          :
          :  -> integral cutoff          0.2500000E+02      :
          :  -> integral neglect         0.1000000E-07      :
          :  -> SCF convergence          0.1000000E-05 Eh   :
          :  -> wf. convergence          0.2000000E-04 e    :
          :  Broyden damping             0.4000000          :
          ...................................................

 iter      E             dE          RMSdq      gap      omega  full diag
   1   -485.8361418 -0.485836E+03  0.101E+01    0.33       0.0  T
   2   -487.0485718 -0.121243E+01  0.634E+00    1.17       1.0  T
   3   -481.3349966  0.571358E+01  0.451E+00    0.35       1.0  T
   4   -488.2174976 -0.688250E+01  0.142E+00    1.05       1.0  T
   5   -489.3537799 -0.113628E+01  0.290E-01    0.92       1.0  T
   6   -489.4015494 -0.477694E-01  0.107E-01    0.97       1.0  T
   7   -489.4051851 -0.363576E-02  0.649E-02    0.96       1.0  T
   8   -489.4070475 -0.186238E-02  0.292E-02    0.95       1.0  T
   9   -489.4072425 -0.194950E-03  0.207E-02    0.95       1.0  T
  10   -489.4073852 -0.142724E-03  0.594E-03    0.95       1.1  T
  11   -489.4073922 -0.703797E-05  0.252E-03    0.95       2.5  T
  12   -489.4073949 -0.266803E-05  0.115E-03    0.95       5.5  T
  13   -489.4073954 -0.516412E-06  0.576E-04    0.95      10.9  T
  14   -489.4073955 -0.123815E-06  0.194E-04    0.95      32.4  T
  15   -489.4073956 -0.173575E-07  0.640E-05    0.95      98.1  T

   *** convergence criteria satisfied after 15 iterations ***

         #    Occupation            Energy/Eh            Energy/eV
      -------------------------------------------------------------
         1        2.0000           -1.0329540             -28.1081
       ...           ...                  ...                  ...
       379        2.0000           -0.3798640             -10.3366
       380        2.0000           -0.3794002             -10.3240
       381        2.0000           -0.3791963             -10.3185
       382        2.0000           -0.3677092             -10.0059
       383        2.0000           -0.3628836              -9.8746
       384        2.0000           -0.3561736              -9.6920
       385        2.0000           -0.3489615              -9.4957 (HOMO)
       386                         -0.3138950              -8.5415 (LUMO)
       387                         -0.3046584              -8.2902
       388                         -0.2961238              -8.0579
       389                         -0.2937028              -7.9921
       390                         -0.2932693              -7.9803
       ...                                ...                  ...
      1000                        565.6519652           15392.1734
      -------------------------------------------------------------
                  HL-Gap            0.0350665 Eh            0.9542 eV
             Fermi-level           -0.3314280 Eh           -9.0186 eV

 SCC (total)                   0 d,  0 h,  0 min,  8.516 sec
 SCC setup                      ...        0 min,  0.009 sec (  0.108%)
 Dispersion                     ...        0 min,  0.011 sec (  0.133%)
 classical contributions        ...        0 min,  0.004 sec (  0.044%)
 integral evaluation            ...        0 min,  0.742 sec (  8.711%)
 iterations                     ...        0 min,  6.092 sec ( 71.531%)
 molecular gradient             ...        0 min,  1.555 sec ( 18.254%)
 printout                       ...        0 min,  0.104 sec (  1.220%)

         :::::::::::::::::::::::::::::::::::::::::::::::::::::
         ::                     SUMMARY                     ::
         :::::::::::::::::::::::::::::::::::::::::::::::::::::
         :: total energy            -479.476454387062 Eh    ::
         :: gradient norm              0.090881501140 Eh/a0 ::
         :: HOMO-LUMO gap              0.954207956380 eV    ::
         ::.................................................::
         :: SCC energy              -489.407395559302 Eh    ::
         :: -> electrostatic           0.405118510558 Eh    ::
         :: repulsion energy          10.146186411898 Eh    ::
         :: dispersion energy         -0.215245239657 Eh    ::
         :: halogen bond corr.         0.000000000000 Eh    ::
         :: add. restraining           0.000000000000 Eh    ::
         :: total charge               0.000000000008 e     ::
         :::::::::::::::::::::::::::::::::::::::::::::::::::::

           ------------------------------------------------- 
          |        vertical delta SCC IP calculation        |
           ------------------------------------------------- 
   1   -489.0280046 -0.489028E+03  0.840E-02    0.95       0.0  T
   2   -489.0283879 -0.383350E-03  0.843E-02    0.89       1.0  T
   3   -489.0343759 -0.598794E-02  0.406E-02    0.93       1.0  T
   4   -489.0344557 -0.798478E-04  0.321E-02    0.92       1.0  T
   5   -489.0341736  0.282152E-03  0.292E-02    0.92       1.0  T
   6   -489.0350114 -0.837796E-03  0.163E-02    0.93       1.0  T
   7   -489.0353159 -0.304546E-03  0.575E-03    0.92       1.1  T
   8   -489.0353333 -0.174088E-04  0.173E-03    0.93       3.6  T
   9   -489.0353352 -0.188457E-05  0.917E-04    0.92       6.8  T
  10   -489.0353356 -0.349313E-06  0.400E-04    0.93      15.7  T
  11   -489.0353356 -0.767375E-07  0.192E-04    0.93      32.7  T
  12   -489.0353357 -0.163037E-07  0.633E-05    0.93      99.1  T
     SCC iter.                  ...        0 min,  5.219 sec
     gradient                   ...        0 min,  1.545 sec
------------------------------------------------------------------------
empirical IP shift (eV):    4.8455
delta SCC IP (eV):    5.2788
------------------------------------------------------------------------
           ------------------------------------------------- 
          |        vertical delta SCC EA calculation        |
           ------------------------------------------------- 
   1   -489.6725585 -0.489673E+03  0.148E-01    0.29       0.0  T
   2   -489.6836755 -0.111170E-01  0.128E-01    0.11       1.0  T
   3   -489.6943822 -0.107067E-01  0.720E-02    0.20       1.0  T
   4   -489.6960908 -0.170868E-02  0.477E-02    0.17       1.0  T
   5   -489.6960885  0.233434E-05  0.296E-02    0.17       1.0  T
   6   -489.6944247  0.166379E-02  0.368E-02    0.18       1.0  T
   7   -489.6963655 -0.194080E-02  0.134E-02    0.17       1.0  T
   8   -489.6966012 -0.235664E-03  0.422E-03    0.17       1.5  T
   9   -489.6966130 -0.117913E-04  0.244E-03    0.17       2.6  T
  10   -489.6966161 -0.311675E-05  0.662E-04    0.17       9.5  T
  11   -489.6966163 -0.219232E-06  0.316E-04    0.17      19.9  T
  12   -489.6966163 -0.380596E-07  0.124E-04    0.17      50.5  T
  13   -489.6966163 -0.665005E-08  0.563E-05    0.17     111.4  T
     SCC iter.                  ...        0 min,  4.750 sec
     gradient                   ...        0 min,  1.515 sec
------------------------------------------------------------------------
empirical EA shift (eV):    4.8455
delta SCC EA (eV):    3.0246
------------------------------------------------------------------------
           -------------------------------------------------
          |                Property Printout                |
           -------------------------------------------------

    * Orbital Energies and Occupations

         #    Occupation            Energy/Eh            Energy/eV
      -------------------------------------------------------------
         1        2.0000           -0.9899950             -26.9391
       ...           ...                  ...                  ...
       374        2.0000           -0.3442520              -9.3676
       375        2.0000           -0.3426738              -9.3246
       376        2.0000           -0.3408499              -9.2750
       377        2.0000           -0.3407052              -9.2711
       378        2.0000           -0.3375384              -9.1849
       379        2.0000           -0.3374431              -9.1823
       380        2.0000           -0.3302088              -8.9854
       381        2.0000           -0.3298964              -8.9769
       382        2.0000           -0.3228837              -8.7861
       383        2.0000           -0.3195689              -8.6959
       384        2.0000           -0.3106151              -8.4523
       385        2.0000           -0.3005792              -8.1792
       386        0.9643           -0.2651303              -7.2146 (HOMO)
       387        0.0356           -0.2588659              -7.0441 (LUMO)
       388        0.0000           -0.2523021              -6.8655
       389        0.0000           -0.2517967              -6.8517
       390        0.0000           -0.2495561              -6.7908
       391                         -0.2446983              -6.6586
       392                         -0.2442084              -6.6452
       393                         -0.2401208              -6.5340
       394                         -0.2133136              -5.8046
       395                         -0.2079577              -5.6588
       396                         -0.2028261              -5.5192
       397                         -0.2002911              -5.4502
       ...                                ...                  ...
      1000                        565.6998921           15393.4776
      -------------------------------------------------------------
                  HL-Gap            0.0062645 Eh            0.1705 eV
             Fermi-level           -0.2724272 Eh           -7.4131 eV

  Mulliken/CM5 charges         n(s)   n(p)   n(d)
     1C    -0.02926 -0.07010   1.084  2.946  0.000
     2C     0.05926  0.11964   1.104  2.837  0.000
     3C    -0.03992 -0.08522   1.079  2.961  0.000
     4C    -0.03524 -0.08023   1.075  2.960  0.000
     5C     0.05950  0.12335   1.099  2.841  0.000
     6N    -0.16233 -0.51518   1.312  3.850  0.000
     7C     0.00728  0.01300   1.091  2.902  0.000
     8C    -0.00637 -0.01492   1.071  2.935  0.000
     9C    -0.02485 -0.07796   1.079  2.945  0.000
    10C    -0.04078 -0.08931   1.067  2.973  0.000
    11C     0.05723  0.10763   1.102  2.841  0.000
    12N    -0.30794 -0.76202   1.331  3.976  0.000
    13C    -0.04196 -0.09050   1.067  2.975  0.000
    14C    -0.02692 -0.07996   1.077  2.950  0.000
    15C     0.05589  0.12388   1.115  2.829  0.000
    16C    -0.03996 -0.08598   1.083  2.957  0.000
    17C    -0.04084 -0.08625   1.089  2.952  0.000
    18N    -0.28839 -0.47502   1.294  3.995  0.000
    19C     0.06183  0.13262   1.129  2.809  0.000
    20C     0.01329  0.02047   1.084  2.903  0.000
    21C     0.06424  0.12915   1.109  2.827  0.000
    22C    -0.03607 -0.08049   1.077  2.959  0.000
    23C    -0.03497 -0.07999   1.073  2.962  0.000
    24C     0.05915  0.12240   1.098  2.843  0.000
    25N    -0.15911 -0.51126   1.315  3.844  0.000
    26C     0.00613  0.01191   1.090  2.904  0.000
    27C    -0.00645 -0.01498   1.071  2.935  0.000
    28C    -0.02579 -0.07892   1.079  2.946  0.000
    29C    -0.04163 -0.09016   1.067  2.974  0.000
    30C     0.05717  0.10761   1.102  2.841  0.000
    31N    -0.30754 -0.76162   1.331  3.976  0.000
    32C    -0.04128 -0.08986   1.067  2.975  0.000
    33C    -0.02609 -0.07915   1.077  2.949  0.000
    34C     0.05728  0.12660   1.119  2.824  0.000
    35C    -0.04020 -0.08623   1.086  2.955  0.000
    36C    -0.04408 -0.09043   1.090  2.954  0.000
    37C     0.05597  0.12166   1.124  2.820  0.000
    38N    -0.29214 -0.47914   1.292  4.000  0.000
    39H     0.02073  0.07975   0.979  0.000  0.000
    40H     0.03175  0.08841   0.968  0.000  0.000
    41H     0.02298  0.08174   0.977  0.000  0.000
    42H     0.16090  0.36924   0.839  0.000  0.000
    43H     0.01952  0.07753   0.980  0.000  0.000
    44H     0.02679  0.08580   0.973  0.000  0.000
    45H     0.16215  0.35308   0.838  0.000  0.000
    46H     0.16305  0.35398   0.837  0.000  0.000
    47H     0.02532  0.08430   0.975  0.000  0.000
    48H     0.01852  0.07648   0.981  0.000  0.000
    49H     0.01510  0.07384   0.985  0.000  0.000
    50H     0.01984  0.07784   0.980  0.000  0.000
    51H     0.03028  0.08843   0.970  0.000  0.000
    52H     0.02434  0.08317   0.976  0.000  0.000
    53H     0.15922  0.36753   0.841  0.000  0.000
    54H     0.01783  0.07583   0.982  0.000  0.000
    55H     0.02527  0.08426   0.975  0.000  0.000
    56H     0.16208  0.35299   0.838  0.000  0.000
    57H     0.16238  0.35328   0.838  0.000  0.000
    58H     0.02668  0.08573   0.973  0.000  0.000
    59H     0.02001  0.07803   0.980  0.000  0.000
    60H     0.01383  0.07250   0.986  0.000  0.000
    61H     0.02194  0.07835   0.978  0.000  0.000
    62C    -0.02925 -0.07009   1.084  2.946  0.000
    63C     0.05925  0.11962   1.104  2.837  0.000
    64C    -0.03995 -0.08525   1.079  2.961  0.000
    65C    -0.03528 -0.08027   1.075  2.960  0.000
    66C     0.05947  0.12332   1.099  2.842  0.000
    67N    -0.16229 -0.51513   1.312  3.850  0.000
    68C     0.00734  0.01306   1.091  2.902  0.000
    69C    -0.00630 -0.01486   1.071  2.935  0.000
    70C    -0.02491 -0.07806   1.079  2.946  0.000
    71C    -0.04080 -0.08934   1.067  2.973  0.000
    72C     0.05718  0.10755   1.102  2.841  0.000
    73N    -0.30804 -0.76202   1.332  3.976  0.000
    74C    -0.04190 -0.09043   1.067  2.975  0.000
    75C    -0.02686 -0.07989   1.077  2.950  0.000
    76C     0.05591  0.12387   1.115  2.829  0.000
    77C    -0.04001 -0.08604   1.083  2.957  0.000
    78C    -0.04082 -0.08624   1.089  2.952  0.000
    79N    -0.28843 -0.47498   1.294  3.995  0.000
    80C     0.06196  0.13278   1.129  2.809  0.000
    81C     0.01318  0.02034   1.084  2.903  0.000
    82C     0.06425  0.12916   1.109  2.827  0.000
    83C    -0.03606 -0.08048   1.078  2.958  0.000
    84C    -0.03498 -0.07998   1.073  2.962  0.000
    85C     0.05917  0.12241   1.097  2.843  0.000
    86N    -0.15917 -0.51127   1.315  3.844  0.000
    87C     0.00617  0.01194   1.090  2.904  0.000
    88C    -0.00640 -0.01494   1.071  2.935  0.000
    89C    -0.02580 -0.07894   1.079  2.946  0.000
    90C    -0.04158 -0.09012   1.067  2.974  0.000
    91C     0.05714  0.10756   1.102  2.841  0.000
    92N    -0.30760 -0.76172   1.331  3.976  0.000
    93C    -0.04129 -0.08980   1.067  2.975  0.000
    94C    -0.02611 -0.07917   1.077  2.949  0.000
    95C     0.05731  0.12664   1.119  2.824  0.000
    96C    -0.04022 -0.08624   1.086  2.955  0.000
    97C    -0.04409 -0.09045   1.090  2.954  0.000
    98C     0.05595  0.12161   1.124  2.820  0.000
    99N    -0.29215 -0.47914   1.292  4.000  0.000
   100H     0.02069  0.07971   0.979  0.000  0.000
   101H     0.03173  0.08840   0.968  0.000  0.000
   102H     0.02295  0.08169   0.977  0.000  0.000
   103H     0.16094  0.36926   0.839  0.000  0.000
   104H     0.01937  0.07734   0.981  0.000  0.000
   105H     0.02661  0.08561   0.973  0.000  0.000
   106H     0.16209  0.35297   0.838  0.000  0.000
   107H     0.16291  0.35382   0.837  0.000  0.000
   108H     0.02537  0.08435   0.975  0.000  0.000
   109H     0.01862  0.07659   0.981  0.000  0.000
   110H     0.01502  0.07381   0.985  0.000  0.000
   111H     0.01965  0.07773   0.980  0.000  0.000
   112H     0.03007  0.08819   0.970  0.000  0.000
   113H     0.02432  0.08315   0.976  0.000  0.000
   114H     0.15927  0.36755   0.841  0.000  0.000
   115H     0.01790  0.07591   0.982  0.000  0.000
   116H     0.02531  0.08431   0.975  0.000  0.000
   117H     0.16203  0.35295   0.838  0.000  0.000
   118H     0.16229  0.35325   0.838  0.000  0.000
   119H     0.02648  0.08545   0.974  0.000  0.000
   120H     0.01992  0.07790   0.980  0.000  0.000
   121H     0.01382  0.07251   0.986  0.000  0.000
   122H     0.02191  0.07832   0.978  0.000  0.000
   123C    -0.02505 -0.02591   1.060  2.965  0.000
   124C    -0.02579 -0.02743   1.088  2.938  0.000
   125C    -0.02882 -0.02966   1.057  2.972  0.000
   126C    -0.02180 -0.02338   1.093  2.929  0.000
   127C    -0.02722 -0.02805   1.059  2.969  0.000
   128C    -0.02413 -0.02572   1.090  2.934  0.000
   129C    -0.02724 -0.02808   1.059  2.969  0.000
   130C    -0.02409 -0.02569   1.090  2.934  0.000
   131C    -0.02888 -0.02972   1.057  2.972  0.000
   132C    -0.02192 -0.02353   1.092  2.930  0.000
   133C    -0.02512 -0.02599   1.060  2.965  0.000
   134C    -0.02590 -0.02756   1.087  2.938  0.000
   135C     0.00870  0.01593   1.080  2.912  0.000
   136C     0.06362  0.12853   1.109  2.827  0.000
   137C    -0.03897 -0.08340   1.076  2.963  0.000
   138C    -0.03570 -0.08069   1.074  2.962  0.000
   139C     0.05723  0.12056   1.095  2.848  0.000
   140N    -0.15897 -0.51135   1.314  3.845  0.000
   141C     0.00981  0.01544   1.093  2.897  0.000
   142C    -0.00550 -0.01412   1.072  2.934  0.000
   143C    -0.02461 -0.07775   1.079  2.945  0.000
   144C    -0.04099 -0.08954   1.067  2.974  0.000
   145C     0.05716  0.10756   1.102  2.841  0.000
   146N    -0.30811 -0.76218   1.331  3.977  0.000
   147C    -0.04150 -0.09004   1.067  2.975  0.000
   148C    -0.02587 -0.07893   1.077  2.949  0.000
   149C     0.05461  0.12251   1.114  2.832  0.000
   150C    -0.04043 -0.08646   1.084  2.957  0.000
   151C    -0.04232 -0.08774   1.088  2.954  0.000
   152N    -0.28832 -0.47446   1.293  3.995  0.000
   153C     0.06148  0.13235   1.129  2.809  0.000
   154C     0.01071  0.01794   1.082  2.908  0.000
   155C     0.06372  0.12865   1.109  2.827  0.000
   156C    -0.03810 -0.08253   1.076  2.962  0.000
   157C    -0.03562 -0.08061   1.073  2.962  0.000
   158C     0.05752  0.12080   1.095  2.847  0.000
   159N    -0.15856 -0.51090   1.315  3.844  0.000
   160C     0.00942  0.01505   1.092  2.898  0.000
   161C    -0.00557 -0.01419   1.072  2.934  0.000
   162C    -0.02580 -0.07888   1.077  2.949  0.000
   163C    -0.04142 -0.08996   1.067  2.975  0.000
   164C     0.05715  0.10759   1.102  2.841  0.000
   165N    -0.30797 -0.76213   1.331  3.977  0.000
   166C    -0.04115 -0.08969   1.067  2.974  0.000
   167C    -0.02476 -0.07788   1.079  2.945  0.000
   168C     0.05471  0.12271   1.114  2.831  0.000
   169C    -0.04045 -0.08647   1.084  2.956  0.000
   170C    -0.04294 -0.08836   1.088  2.955  0.000
   171C     0.06113  0.13188   1.129  2.809  0.000
   172N    -0.28907 -0.47524   1.293  3.996  0.000
   173H     0.02711  0.08522   0.973  0.000  0.000
   174H     0.02218  0.08106   0.978  0.000  0.000
   175H     0.15932  0.36730   0.841  0.000  0.000
   176H     0.01893  0.07691   0.981  0.000  0.000
   177H     0.02566  0.08466   0.974  0.000  0.000
   178H     0.16204  0.35297   0.838  0.000  0.000
   179H     0.16163  0.35255   0.838  0.000  0.000
   180H     0.02539  0.08438   0.975  0.000  0.000
   181H     0.01937  0.07736   0.981  0.000  0.000
   182H     0.01343  0.07223   0.987  0.000  0.000
   183H     0.01780  0.07580   0.982  0.000  0.000
   184H     0.02817  0.08624   0.972  0.000  0.000
   185H     0.02258  0.08148   0.977  0.000  0.000
   186H     0.15923  0.36719   0.841  0.000  0.000
   187H     0.01957  0.07754   0.980  0.000  0.000
   188H     0.02560  0.08459   0.974  0.000  0.000
   189H     0.16186  0.35278   0.838  0.000  0.000
   190H     0.16169  0.35268   0.838  0.000  0.000
   191H     0.02540  0.08440   0.975  0.000  0.000
   192H     0.01865  0.07666   0.981  0.000  0.000
   193H     0.01308  0.07186   0.987  0.000  0.000
   194H     0.01680  0.07475   0.983  0.000  0.000
   195C     0.01071  0.01793   1.082  2.908  0.000
   196C     0.06372  0.12865   1.109  2.827  0.000
   197C    -0.03812 -0.08254   1.076  2.962  0.000
   198C    -0.03566 -0.08063   1.073  2.962  0.000
   199C     0.05750  0.12079   1.095  2.848  0.000
   200N    -0.15853 -0.51085   1.315  3.844  0.000
   201C     0.00950  0.01513   1.092  2.898  0.000
   202C    -0.00548 -0.01411   1.072  2.934  0.000
   203C    -0.02484 -0.07800   1.079  2.946  0.000
   204C    -0.04117 -0.08971   1.067  2.974  0.000
   205C     0.05706  0.10745   1.102  2.841  0.000
   206N    -0.30814 -0.76214   1.331  3.977  0.000
   207C    -0.04136 -0.08990   1.067  2.975  0.000
   208C    -0.02577 -0.07884   1.077  2.949  0.000
   209C     0.05472  0.12270   1.114  2.831  0.000
   210C    -0.04050 -0.08652   1.084  2.956  0.000
   211C    -0.04293 -0.08836   1.088  2.955  0.000
   212N    -0.28911 -0.47519   1.293  3.996  0.000
   213C     0.06125  0.13204   1.129  2.809  0.000
   214C     0.00861  0.01583   1.080  2.912  0.000
   215C     0.06368  0.12858   1.109  2.827  0.000
   216C    -0.03891 -0.08334   1.076  2.963  0.000
   217C    -0.03568 -0.08065   1.074  2.962  0.000
   218C     0.05725  0.12056   1.095  2.848  0.000
   219N    -0.15901 -0.51132   1.314  3.845  0.000
   220C     0.00987  0.01550   1.093  2.897  0.000
   221C    -0.00546 -0.01409   1.072  2.934  0.000
   222C    -0.02590 -0.07898   1.077  2.949  0.000
   223C    -0.04153 -0.09006   1.067  2.975  0.000
   224C     0.05713  0.10752   1.102  2.841  0.000
   225N    -0.30817 -0.76221   1.331  3.977  0.000
   226C    -0.04095 -0.08950   1.067  2.974  0.000
   227C    -0.02463 -0.07777   1.079  2.945  0.000
   228C     0.05463  0.12254   1.114  2.832  0.000
   229C    -0.04045 -0.08647   1.084  2.957  0.000
   230C    -0.04235 -0.08778   1.088  2.954  0.000
   231C     0.06145  0.13230   1.129  2.809  0.000
   232N    -0.28833 -0.47446   1.293  3.995  0.000
   233H     0.02816  0.08624   0.972  0.000  0.000
   234H     0.02258  0.08146   0.977  0.000  0.000
   235H     0.15928  0.36721   0.841  0.000  0.000
   236H     0.01856  0.07652   0.981  0.000  0.000
   237H     0.02523  0.08423   0.975  0.000  0.000
   238H     0.16167  0.35257   0.838  0.000  0.000
   239H     0.16158  0.35249   0.838  0.000  0.000
   240H     0.02560  0.08458   0.974  0.000  0.000
   241H     0.01964  0.07760   0.980  0.000  0.000
   242H     0.01302  0.07185   0.987  0.000  0.000
   243H     0.01660  0.07460   0.983  0.000  0.000
   244H     0.02692  0.08502   0.973  0.000  0.000
   245H     0.02218  0.08107   0.978  0.000  0.000
   246H     0.15937  0.36729   0.841  0.000  0.000
   247H     0.01930  0.07725   0.981  0.000  0.000
   248H     0.02523  0.08422   0.975  0.000  0.000
   249H     0.16201  0.35293   0.838  0.000  0.000
   250H     0.16153  0.35245   0.838  0.000  0.000
   251H     0.02568  0.08468   0.974  0.000  0.000
   252H     0.01897  0.07694   0.981  0.000  0.000
   253H     0.01341  0.07223   0.987  0.000  0.000
   254H     0.01774  0.07575   0.982  0.000  0.000

Wiberg/Mayer (AO) data.
largest (>0.10) Wiberg bond orders for each atom

 ---------------------------------------------------------------------------
     #   Z sym  total        # sym  WBO       # sym  WBO       # sym  WBO
 ---------------------------------------------------------------------------
     1   6 C    3.799 --    37 C    1.381     2 C    1.369    39 H    0.997
     2   6 C    3.924 --     1 C    1.369     3 C    1.243     6 N    1.230
     3   6 C    3.830 --     4 C    1.592     2 C    1.243    40 H    0.994
     4   6 C    3.823 --     3 C    1.592     5 C    1.256    41 H    1.000
     5   6 C    3.892 --     7 C    1.340     4 C    1.256     6 N    1.225
     6   7 N    3.241 --     2 C    1.230     5 C    1.225    42 H    0.962
     7   6 C    3.840 --    15 C    1.365     5 C    1.340     8 C    1.055
     8   6 C    3.876 --    14 C    1.409     9 C    1.408     7 C    1.055
     9   6 C    3.871 --    10 C    1.466     8 C    1.408    43 H    0.990
    10   6 C    3.872 --     9 C    1.466    11 C    1.376    44 H    0.989
    11   6 C    3.973 --    13 C    1.377    10 C    1.376    12 N    1.147
    12   7 N    3.059 --    11 C    1.147    45 H    0.972    46 H    0.971
    13   6 C    3.870 --    14 C    1.464    11 C    1.377    47 H    0.990
    14   6 C    3.867 --    13 C    1.464     8 C    1.409    48 H    0.990
    15   6 C    3.919 --     7 C    1.365    18 N    1.352    16 C    1.166
    16   6 C    3.836 --    17 C    1.685    15 C    1.166    49 H    0.999
    17   6 C    3.846 --    16 C    1.685    19 C    1.170    50 H    1.000
    18   7 N    2.561 --    19 C    1.415    15 C    1.352
    19   6 C    3.942 --    18 N    1.415    20 C    1.283    17 C    1.170
    20   6 C    3.828 --    19 C    1.283    21 C    1.281   124 C    1.226
    21   6 C    3.902 --    20 C    1.281    22 C    1.273    25 N    1.250
    22   6 C    3.824 --    23 C    1.574    21 C    1.273    51 H    0.999
    23   6 C    3.813 --    22 C    1.574    24 C    1.265    52 H    0.999
    24   6 C    3.888 --    26 C    1.336    23 C    1.265    25 N    1.221
    25   7 N    3.258 --    21 C    1.250    24 C    1.221    53 H    0.961
    26   6 C    3.824 --    34 C    1.359    24 C    1.336    27 C    1.057
    27   6 C    3.876 --    28 C    1.408    33 C    1.407    26 C    1.057
    28   6 C    3.869 --    29 C    1.466    27 C    1.408    54 H    0.990
    29   6 C    3.871 --    28 C    1.466    30 C    1.376    55 H    0.990
    30   6 C    3.972 --    32 C    1.376    29 C    1.376    31 N    1.147
    31   7 N    3.059 --    30 C    1.147    57 H    0.972    56 H    0.972
    32   6 C    3.870 --    33 C    1.466    30 C    1.376    58 H    0.989
    33   6 C    3.866 --    32 C    1.466    27 C    1.407    59 H    0.990
    34   6 C    3.940 --    38 N    1.375    26 C    1.359    35 C    1.157
    35   6 C    3.842 --    36 C    1.702    34 C    1.157    60 H    1.000
    36   6 C    3.858 --    35 C    1.702    37 C    1.149    61 H    0.994
    37   6 C    3.967 --     1 C    1.381    38 N    1.377    36 C    1.149
    38   7 N    2.542 --    37 C    1.377    34 C    1.375
    39   1 H    1.035 --     1 C    0.997
    40   1 H    1.019 --     3 C    0.994
    41   1 H    1.038 --     4 C    1.000
    42   1 H    1.085 --     6 N    0.962
    43   1 H    1.055 --     9 C    0.990
    44   1 H    1.023 --    10 C    0.989
    45   1 H    1.029 --    12 N    0.972
    46   1 H    1.029 --    12 N    0.971
    47   1 H    1.023 --    13 C    0.990
    48   1 H    1.051 --    14 C    0.990
    49   1 H    1.039 --    16 C    0.999
    50   1 H    1.033 --    17 C    1.000
    51   1 H    1.029 --    22 C    0.999
    52   1 H    1.037 --    23 C    0.999
    53   1 H    1.090 --    25 N    0.961
    54   1 H    1.055 --    28 C    0.990
    55   1 H    1.024 --    29 C    0.990
    56   1 H    1.029 --    31 N    0.972
    57   1 H    1.029 --    31 N    0.972
    58   1 H    1.022 --    32 C    0.989
    59   1 H    1.051 --    33 C    0.990
    60   1 H    1.040 --    35 C    1.000
    61   1 H    1.022 --    36 C    0.994
    62   6 C    3.799 --    98 C    1.381    63 C    1.369   100 H    0.997
    63   6 C    3.924 --    62 C    1.369    64 C    1.243    67 N    1.230
    64   6 C    3.830 --    65 C    1.591    63 C    1.243   101 H    0.994
    65   6 C    3.823 --    64 C    1.591    66 C    1.256   102 H    1.000
    66   6 C    3.892 --    68 C    1.340    65 C    1.256    67 N    1.225
    67   7 N    3.241 --    63 C    1.230    66 C    1.225   103 H    0.962
    68   6 C    3.840 --    76 C    1.366    66 C    1.340    69 C    1.054
    69   6 C    3.876 --    75 C    1.409    70 C    1.408    68 C    1.054
    70   6 C    3.871 --    71 C    1.466    69 C    1.408   104 H    0.990
    71   6 C    3.872 --    70 C    1.466    72 C    1.376   105 H    0.989
    72   6 C    3.973 --    74 C    1.377    71 C    1.376    73 N    1.147
    73   7 N    3.058 --    72 C    1.147   106 H    0.972   107 H    0.971
    74   6 C    3.871 --    75 C    1.464    72 C    1.377   108 H    0.990
    75   6 C    3.867 --    74 C    1.464    69 C    1.409   109 H    0.990
    76   6 C    3.919 --    68 C    1.366    79 N    1.352    77 C    1.166
    77   6 C    3.836 --    78 C    1.685    76 C    1.166   110 H    0.999
    78   6 C    3.846 --    77 C    1.685    80 C    1.170   111 H    1.000
    79   7 N    2.561 --    80 C    1.416    76 C    1.352
    80   6 C    3.941 --    79 N    1.416    81 C    1.282    78 C    1.170
    81   6 C    3.828 --    80 C    1.282    82 C    1.281   134 C    1.226
    82   6 C    3.902 --    81 C    1.281    83 C    1.272    86 N    1.250
    83   6 C    3.825 --    84 C    1.574    82 C    1.272   112 H    0.999
    84   6 C    3.812 --    83 C    1.574    85 C    1.265   113 H    0.999
    85   6 C    3.887 --    87 C    1.337    84 C    1.265    86 N    1.221
    86   7 N    3.258 --    82 C    1.250    85 C    1.221   114 H    0.961
    87   6 C    3.824 --    95 C    1.359    85 C    1.337    88 C    1.057
    88   6 C    3.876 --    94 C    1.407    89 C    1.407    87 C    1.057
    89   6 C    3.869 --    90 C    1.466    88 C    1.407   115 H    0.990
    90   6 C    3.871 --    89 C    1.466    91 C    1.376   116 H    0.989
    91   6 C    3.972 --    93 C    1.377    90 C    1.376    92 N    1.147
    92   7 N    3.059 --    91 C    1.147   118 H    0.972   117 H    0.972
    93   6 C    3.870 --    94 C    1.465    91 C    1.377   119 H    0.989
    94   6 C    3.866 --    93 C    1.465    88 C    1.407   120 H    0.990
    95   6 C    3.940 --    99 N    1.375    87 C    1.359    96 C    1.156
    96   6 C    3.842 --    97 C    1.702    95 C    1.156   121 H    1.000
    97   6 C    3.858 --    96 C    1.702    98 C    1.149   122 H    0.994
    98   6 C    3.967 --    62 C    1.381    99 N    1.376    97 C    1.149
    99   7 N    2.542 --    98 C    1.376    95 C    1.375
   100   1 H    1.036 --    62 C    0.997
   101   1 H    1.019 --    64 C    0.994
   102   1 H    1.038 --    65 C    1.000
   103   1 H    1.085 --    67 N    0.962
   104   1 H    1.055 --    70 C    0.990
   105   1 H    1.024 --    71 C    0.989
   106   1 H    1.029 --    73 N    0.972
   107   1 H    1.029 --    73 N    0.971
   108   1 H    1.023 --    74 C    0.990
   109   1 H    1.051 --    75 C    0.990
   110   1 H    1.039 --    77 C    0.999
   111   1 H    1.033 --    78 C    1.000
   112   1 H    1.029 --    83 C    0.999
   113   1 H    1.037 --    84 C    0.999
   114   1 H    1.089 --    86 N    0.961
   115   1 H    1.055 --    89 C    0.990
   116   1 H    1.024 --    90 C    0.989
   117   1 H    1.029 --    92 N    0.972
   118   1 H    1.029 --    92 N    0.972
   119   1 H    1.022 --    93 C    0.989
   120   1 H    1.051 --    94 C    0.990
   121   1 H    1.040 --    96 C    1.000
   122   1 H    1.022 --    97 C    0.994
   123   6 C    3.796 --   124 C    2.489   125 C    1.334
   124   6 C    3.795 --   123 C    2.489    20 C    1.226   126 C    0.177
   125   6 C    3.793 --   126 C    2.486   123 C    1.334
   126   6 C    3.798 --   125 C    2.486   135 C    1.230   124 C    0.177
   127   6 C    3.793 --   128 C    2.477   129 C    1.343
   128   6 C    3.797 --   127 C    2.477   154 C    1.238   130 C    0.177
   129   6 C    3.793 --   130 C    2.478   127 C    1.343
   130   6 C    3.797 --   129 C    2.478   195 C    1.237   128 C    0.177
   131   6 C    3.793 --   132 C    2.486   133 C    1.334
   132   6 C    3.798 --   131 C    2.486   214 C    1.230   134 C    0.178
   133   6 C    3.796 --   134 C    2.489   131 C    1.334
   134   6 C    3.796 --   133 C    2.489    81 C    1.226   132 C    0.178
   135   6 C    3.811 --   171 C    1.279   136 C    1.275   126 C    1.230
   136   6 C    3.904 --   137 C    1.276   135 C    1.275   140 N    1.253
   137   6 C    3.820 --   138 C    1.568   136 C    1.276   173 H    1.000
   138   6 C    3.815 --   137 C    1.568   139 C    1.271   174 H    1.000
   139   6 C    3.882 --   141 C    1.332   138 C    1.271   140 N    1.218
   140   7 N    3.246 --   136 C    1.253   139 C    1.218   175 H    0.962
   141   6 C    3.829 --   149 C    1.373   139 C    1.332   142 C    1.055
   142   6 C    3.876 --   143 C    1.409   148 C    1.408   141 C    1.055
   143   6 C    3.871 --   144 C    1.466   142 C    1.409   176 H    0.990
   144   6 C    3.871 --   143 C    1.466   145 C    1.377   177 H    0.989
   145   6 C    3.972 --   147 C    1.377   144 C    1.377   146 N    1.147
   146   7 N    3.058 --   145 C    1.147   179 H    0.972   178 H    0.972
   147   6 C    3.870 --   148 C    1.465   145 C    1.377   180 H    0.989
   148   6 C    3.866 --   147 C    1.465   142 C    1.408   181 H    0.990
   149   6 C    3.920 --   141 C    1.373   152 N    1.346   150 C    1.167
   150   6 C    3.836 --   151 C    1.684   149 C    1.167   182 H    1.000
   151   6 C    3.844 --   150 C    1.684   153 C    1.172   183 H    1.001
   152   7 N    2.544 --   153 C    1.421   149 C    1.346
   153   6 C    3.942 --   152 N    1.421   154 C    1.275   151 C    1.172
   154   6 C    3.812 --   153 C    1.275   155 C    1.273   128 C    1.238
   155   6 C    3.904 --   156 C    1.278   154 C    1.273   159 N    1.253
   156   6 C    3.822 --   157 C    1.567   155 C    1.278   184 H    1.000
   157   6 C    3.814 --   156 C    1.567   158 C    1.271   185 H    1.000
   158   6 C    3.882 --   160 C    1.330   157 C    1.271   159 N    1.220
   159   7 N    3.248 --   155 C    1.253   158 C    1.220   186 H    0.963
   160   6 C    3.828 --   168 C    1.375   158 C    1.330   161 C    1.055
   161   6 C    3.876 --   162 C    1.409   167 C    1.408   160 C    1.055
   162   6 C    3.866 --   163 C    1.465   161 C    1.409   187 H    0.990
   163   6 C    3.870 --   162 C    1.465   164 C    1.377   188 H    0.989
   164   6 C    3.972 --   163 C    1.377   166 C    1.376   165 N    1.147
   165   7 N    3.058 --   164 C    1.147   190 H    0.972   189 H    0.972
   166   6 C    3.871 --   167 C    1.466   164 C    1.376   191 H    0.989
   167   6 C    3.871 --   166 C    1.466   161 C    1.408   192 H    0.990
   168   6 C    3.921 --   160 C    1.375   172 N    1.346   169 C    1.166
   169   6 C    3.837 --   170 C    1.685   168 C    1.166   193 H    1.000
   170   6 C    3.844 --   169 C    1.685   171 C    1.171   194 H    1.001
   171   6 C    3.944 --   172 N    1.419   135 C    1.279   170 C    1.171
   172   7 N    2.541 --   171 C    1.419   168 C    1.346
   173   1 H    1.029 --   137 C    1.000
   174   1 H    1.038 --   138 C    1.000
   175   1 H    1.087 --   140 N    0.962
   176   1 H    1.055 --   143 C    0.990
   177   1 H    1.024 --   144 C    0.989
   178   1 H    1.030 --   146 N    0.972
   179   1 H    1.030 --   146 N    0.972
   180   1 H    1.023 --   147 C    0.989
   181   1 H    1.051 --   148 C    0.990
   182   1 H    1.040 --   150 C    1.000
   183   1 H    1.034 --   151 C    1.001
   184   1 H    1.029 --   156 C    1.000
   185   1 H    1.038 --   157 C    1.000
   186   1 H    1.087 --   159 N    0.963
   187   1 H    1.051 --   162 C    0.990
   188   1 H    1.023 --   163 C    0.989
   189   1 H    1.030 --   165 N    0.972
   190   1 H    1.029 --   165 N    0.972
   191   1 H    1.024 --   166 C    0.989
   192   1 H    1.055 --   167 C    0.990
   193   1 H    1.040 --   169 C    1.000
   194   1 H    1.034 --   170 C    1.001
   195   6 C    3.812 --   231 C    1.276   196 C    1.273   130 C    1.237
   196   6 C    3.903 --   197 C    1.278   195 C    1.273   200 N    1.253
   197   6 C    3.821 --   198 C    1.567   196 C    1.278   233 H    1.000
   198   6 C    3.814 --   197 C    1.567   199 C    1.272   234 H    1.000
   199   6 C    3.882 --   201 C    1.330   198 C    1.272   200 N    1.220
   200   7 N    3.248 --   196 C    1.253   199 C    1.220   235 H    0.963
   201   6 C    3.828 --   209 C    1.376   199 C    1.330   202 C    1.054
   202   6 C    3.876 --   203 C    1.409   208 C    1.409   201 C    1.054
   203   6 C    3.871 --   204 C    1.465   202 C    1.409   236 H    0.990
   204   6 C    3.871 --   203 C    1.465   205 C    1.377   237 H    0.990
   205   6 C    3.972 --   207 C    1.377   204 C    1.377   206 N    1.146
   206   7 N    3.058 --   205 C    1.146   239 H    0.972   238 H    0.972
   207   6 C    3.870 --   208 C    1.465   205 C    1.377   240 H    0.989
   208   6 C    3.867 --   207 C    1.465   202 C    1.409   241 H    0.990
   209   6 C    3.921 --   201 C    1.376   212 N    1.346   210 C    1.166
   210   6 C    3.837 --   211 C    1.686   209 C    1.166   242 H    1.000
   211   6 C    3.844 --   210 C    1.686   213 C    1.171   243 H    1.001
   212   7 N    2.542 --   213 C    1.420   209 C    1.346
   213   6 C    3.944 --   212 N    1.420   214 C    1.278   211 C    1.171
   214   6 C    3.811 --   213 C    1.278   215 C    1.275   132 C    1.230
   215   6 C    3.904 --   216 C    1.276   214 C    1.275   219 N    1.253
   216   6 C    3.821 --   217 C    1.569   215 C    1.276   244 H    1.000
   217   6 C    3.815 --   216 C    1.569   218 C    1.270   245 H    1.000
   218   6 C    3.882 --   220 C    1.333   217 C    1.270   219 N    1.218
   219   7 N    3.246 --   215 C    1.253   218 C    1.218   246 H    0.962
   220   6 C    3.829 --   228 C    1.373   218 C    1.333   221 C    1.054
   221   6 C    3.876 --   222 C    1.409   227 C    1.409   220 C    1.054
   222   6 C    3.866 --   223 C    1.464   221 C    1.409   247 H    0.990
   223   6 C    3.870 --   222 C    1.464   224 C    1.377   248 H    0.990
   224   6 C    3.972 --   223 C    1.377   226 C    1.377   225 N    1.146
   225   7 N    3.058 --   224 C    1.146   250 H    0.972   249 H    0.972
   226   6 C    3.871 --   227 C    1.466   224 C    1.377   251 H    0.989
   227   6 C    3.871 --   226 C    1.466   221 C    1.409   252 H    0.990
   228   6 C    3.920 --   220 C    1.373   232 N    1.347   229 C    1.167
   229   6 C    3.836 --   230 C    1.684   228 C    1.167   253 H    1.000
   230   6 C    3.844 --   229 C    1.684   231 C    1.172   254 H    1.001
   231   6 C    3.942 --   232 N    1.421   195 C    1.276   230 C    1.172
   232   7 N    2.544 --   231 C    1.421   228 C    1.347
   233   1 H    1.029 --   197 C    1.000
   234   1 H    1.037 --   198 C    1.000
   235   1 H    1.087 --   200 N    0.963
   236   1 H    1.055 --   203 C    0.990
   237   1 H    1.024 --   204 C    0.990
   238   1 H    1.030 --   206 N    0.972
   239   1 H    1.030 --   206 N    0.972
   240   1 H    1.023 --   207 C    0.989
   241   1 H    1.051 --   208 C    0.990
   242   1 H    1.040 --   210 C    1.000
   243   1 H    1.034 --   211 C    1.001
   244   1 H    1.029 --   216 C    1.000
   245   1 H    1.038 --   217 C    1.000
   246   1 H    1.087 --   219 N    0.962
   247   1 H    1.051 --   222 C    0.990
   248   1 H    1.023 --   223 C    0.990
   249   1 H    1.030 --   225 N    0.972
   250   1 H    1.030 --   225 N    0.972
   251   1 H    1.024 --   226 C    0.989
   252   1 H    1.055 --   227 C    0.990
   253   1 H    1.040 --   229 C    1.000
   254   1 H    1.034 --   230 C    1.001
 ---------------------------------------------------------------------------

Topologies differ in total number of bonds
Writing topology from bond orders to xtbtopo.mol

 dipole moment from electron density (au)
     X       Y       Z   
-127.7462   2.0526   0.9689  total (Debye):  324.750


           -------------------------------------------------
          | TOTAL ENERGY             -479.765675174851 Eh   |
          | GRADIENT NORM               0.092643506441 Eh/α |
          | HOMO-LUMO GAP               0.170464939239 eV   |
           -------------------------------------------------
########################################################################
[WARNING] Runtime exception occurred
-1- restart_readRestart: Dimension missmatch in restart file.
########################################################################

------------------------------------------------------------------------
 * finished run on 2022/07/29 at 14:14:45.413     
------------------------------------------------------------------------
 total:
 * wall-time:     0 d,  0 h,  0 min, 23.898 sec
 *  cpu-time:     0 d,  0 h,  0 min, 23.757 sec
 * ratio c/w:     0.994 speedup
 SCF:
 * wall-time:     0 d,  0 h,  0 min, 23.241 sec
 *  cpu-time:     0 d,  0 h,  0 min, 23.106 sec
 * ratio c/w:     0.994 speedup

