124
 energy: -223.444143094786 gnorm: 1.049035447788 xtb: 6.5.1 (b24c23e)
Co          13.73813300000000       -0.01305400000000       -0.01574700000000
C           10.35242700000000        0.12927000000000        0.03212900000000
C           11.01792200000000        0.91907200000000        0.87965000000000
C           10.37031700000000        1.80460100000000        1.84038500000000
C           11.31482800000000        2.45257600000000        2.49707200000000
C           12.61935100000000        2.01401200000000        1.98168500000000
N           12.43770500000000        1.03649600000000        0.95702600000000
C           13.81272200000000        2.48744200000000        2.38795400000000
C           13.85413500000000        3.50131800000000        3.41816100000000
C           13.89116400000000        4.34653600000000        4.27690200000000
C           13.93607400000000        5.35484900000000        5.30168300000000
C           15.14166700000000        6.00000900000000        5.60096100000000
C           15.16351800000000        6.97658800000000        6.60030800000000
N           14.02247200000000        7.29180200000000        7.27116200000000
C           12.83996100000000        6.67728000000000        6.99669600000000
C           12.77453400000000        5.69527000000000        6.00463600000000
C           15.10762300000000        2.03251400000000        1.82218000000000
C           16.39893800000000        2.65222500000000        2.14310200000000
C           17.33528799999999        1.99016200000000        1.49514900000000
N           15.24803900000000        1.02860800000000        1.01070700000000
C           16.64985200000000        0.93708300000000        0.75478400000000
C           17.24588500000000       -0.00100800000000       -0.00070500000000
C           16.48889600000000       -1.04824900000000       -0.72685700000000
C           17.04177900000000       -2.12912500000000       -1.26359100000000
C           15.99533200000000       -2.85134000000000       -1.95872800000000
C           14.86875500000000       -2.16546600000000       -1.80142200000000
N           15.09050300000000       -0.99284700000000       -1.01441000000000
C           13.57128900000000       -2.53655000000000       -2.42057600000000
C           13.56459200000000       -3.54676700000000       -3.45680500000000
C           13.55945500000000       -4.38850300000000       -4.31983100000000
C           13.55315700000000       -5.39284400000000       -5.34953100000000
C           14.74623400000000       -6.01708000000000       -5.73016800000000
C           14.71836800000000       -6.98969700000000       -6.73326900000000
N           13.54144700000000       -7.32161100000000       -7.32907700000000
C           12.37009800000000       -6.72788200000000       -6.97461200000000
C           12.35396300000000       -5.75027600000000       -5.97602000000000
C           12.40822600000000       -1.97397800000000       -2.04942600000000
C           11.08853300000000       -2.29047400000000       -2.59355900000000
C           10.22638600000000       -1.56273400000000       -1.91043400000000
C           10.98584400000000       -0.77948200000000       -0.93683100000000
N           12.25881300000000       -1.01207000000000       -1.00773700000000
H            9.26898200000000        0.15285100000000        0.05120000000000
H            9.30596800000000        1.92345500000000        1.99781100000000
H           11.13243300000000        3.18430800000000        3.27369700000000
H           16.05239800000000        5.75116300000000        5.06847800000000
H           16.08806600000000        7.48399900000000        6.84267700000000
H           11.95029100000000        6.95104000000000        7.54858900000000
H           11.83100300000000        5.20789600000000        5.78831000000000
H           16.57361100000000        3.50035000000000        2.79227400000000
H           18.39449600000000        2.20716400000000        1.53118400000000
H           18.08359400000000       -2.41623400000000       -1.21782100000000
H           16.12101700000000       -3.76759600000000       -2.52104800000000
H           15.68535900000000       -5.75518500000000       -5.25753600000000
H           15.63291100000000       -7.48083200000000       -7.03808200000000
H           11.45092300000000       -7.01459100000000       -7.46792700000000
H           11.41910700000000       -5.27940700000000       -5.69619200000000
H           10.84121400000000       -2.98419000000000       -3.38685800000000
H            9.15368500000000       -1.55931500000000       -2.05263700000000
Co          32.05624700000000        0.01808500000000        0.00191100000000
C           35.44195300000000       -0.09606500000000       -0.09565000000000
C           34.77645800000000       -1.22883800000000       -0.33835100000000
C           35.42406300000000       -2.50791100000000       -0.60508200000000
C           34.47955100000000       -3.40410700000000       -0.82403800000000
C           33.17502900000000       -2.73667400000000       -0.71225500000000
N           33.35667500000000       -1.35552100000000       -0.39939800000000
C           31.98165700000000       -3.32836300000000       -0.90997600000000
C           31.94024500000000       -4.73294400000000       -1.25118700000000
C           31.90321600000000       -5.90379500000000       -1.53568400000000
C           31.85830600000000       -7.30086300000000       -1.87490600000000
C           30.65271299999999       -7.88889600000000       -2.27492700000000
C           30.63086200000000       -9.24784600000000       -2.59997300000000
N           31.77190800000000       -9.98537300000000       -2.52609000000000
C           32.95441900000000       -9.43436200000000       -2.13962500000000
C           33.01984600000000       -8.07887700000000       -1.80617700000000
C           30.68675600000000       -2.60929000000000       -0.81001600000000
C           29.39544100000000       -3.20283200000000       -1.17708600000000
C           28.45909200000000       -2.30689900000000       -0.94155600000000
N           30.54634100000000       -1.39753900000000       -0.36507200000000
C           29.14452800000000       -1.13092700000000       -0.41790800000000
C           28.54849500000000       -0.00100800000000       -0.00070500000000
C           29.30548300000000        1.15977000000000        0.52523000000000
C           28.75260100000000        2.17526100000000        1.17726800000000
C           29.79904800000000        3.14256600000000        1.44019600000000
C           30.92562500000000        2.65546800000000        0.93235300000000
N           30.70387600000000        1.37809900000000        0.33006600000000
C           32.22309100000000        3.37731000000000        0.93295700000000
C           32.22978700000000        4.78517900000000        1.26793600000000
C           32.23492400000000        5.95792000000000        1.54724500000000
C           32.24122300000000        7.35717000000000        1.88053400000000
C           31.04814600000000        8.00428100000000        2.22083100000000
C           31.07601200000000        9.36441900000000        2.54055000000000
N           32.25293300000000       10.04611700000000        2.51952400000000
C           33.42428200000000        9.43712700000000        2.19197100000000
C           33.44041700000000        8.07829800000000        1.86565600000000
C           33.38615400000000        2.76999500000000        0.64070800000000
C           34.70584700000000        3.39943200000000        0.63297800000000
C           35.56799400000000        2.43960000000000        0.35914300000000
C           34.80853600000000        1.20198900000000        0.18678800000000
N           33.53556700000000        1.38224000000000        0.34998800000000
H           36.52539700000000       -0.12453600000000       -0.10609600000000
H           36.48841200000000       -2.70402500000000       -0.62626300000000
H           34.66194699999999       -4.44622900000000       -1.05330000000000
H           29.74198200000000       -7.30418500000000       -2.33473100000000
H           29.70631300000000       -9.71632600000000       -2.91099600000000
H           33.84408800000000      -10.04851900000000       -2.09123700000000
H           33.96337700000000       -7.64303200000000       -1.49898000000000
H           29.22076900000000       -4.19532800000000       -1.57166300000000
H           27.39988400000000       -2.44922400000000       -1.10928300000000
H           27.71078600000000        2.28337300000000        1.44715400000000
H           29.67336300000000        4.09550500000000        1.93782700000000
H           30.10902100000000        7.46423500000000        2.23871200000000
H           30.16146800000000        9.87813200000000        2.80554900000000
H           34.34345699999999       10.00766200000000        2.18476800000000
H           34.37527299999999        7.59643000000000        1.60522300000000
H           34.95316500000000        4.43634700000000        0.82105600000000
H           36.64069400000000        2.55987900000000        0.28320700000000
C           18.39682600000000        0.01461200000000        0.01022100000000
C           19.85505300000000       -0.00722500000000       -0.00765200000000
C           20.98898100000000       -0.02797900000000       -0.00914300000000
C           22.35036300000000       -0.04056800000000       -0.01133400000000
C           23.62458100000000       -0.03026200000000       -0.01610000000000
C           24.81304400000000       -0.01146400000000       -0.02225600000000
C           26.16540500000000        0.01332100000000       -0.00638800000000
C           27.26567200000000        0.01461200000000        0.01022100000000
124
 energy: -223.698336092332 gnorm: 0.389405166066 xtb: 6.5.1 (b24c23e)
Co          13.73888621311883       -0.00681603437917       -0.01302323996944
C           10.35414095518302        0.11843387882036        0.02002774435906
C           11.02597277334254        0.91838991249009        0.87924735170708
C           10.37078040597846        1.79896132429442        1.83448850325758
C           11.32529776109024        2.45275197377122        2.49698079159973
C           12.61684333335938        2.00676106223267        1.97551865932582
N           12.42893172933788        1.04101614131156        0.96620168842536
C           13.82858613381798        2.49166909758397        2.39032608383835
C           13.85855611886763        3.49708815266628        3.41166752996415
C           13.89160700513105        4.34778358997285        4.27864900245652
C           13.93570288250116        5.35099518178140        5.29775047803632
C           15.13811016509773        6.00051571048909        5.60274161211955
C           15.14774668999392        6.97096018692557        6.59927905663580
N           14.02243624016717        7.29085190045089        7.27019072354047
C           12.85538784701768        6.67571108437540        6.99037659658699
C           12.77802219413746        5.69694712153739        6.00504291483851
C           15.09727996356865        2.04892380056008        1.83808578159013
C           16.38052133075260        2.66076523718362        2.15419470916263
C           17.32643898019097        1.98308253304447        1.48998342037783
N           15.24404841023941        1.03206539054533        1.00498685991774
C           16.61739226133831        0.95496854186400        0.76616925607433
C           17.20297784525465       -0.01420214626663       -0.00908175913629
C           16.45840404784363       -1.04695328133645       -0.73053747329018
C           17.03940937520129       -2.14495494336687       -1.27587805692616
C           16.01238742127606       -2.85474787077603       -1.96032905095298
C           14.85598293659970       -2.15388926929751       -1.80031054920899
N           15.07928621973691       -1.00178713914692       -1.00858833105932
C           13.58495732147865       -2.53534465402057       -2.41908095127974
C           13.57103499174076       -3.54060794320156       -3.44771202668272
C           13.56092033713177       -4.38843467821148       -4.31985137929286
C           13.55301480079397       -5.38849357557424       -5.34512414052976
C           14.74261565023111       -6.01756625897799       -5.73148168950324
C           14.70270612171264       -6.98431850632613       -6.73110562076481
N           13.54144065237565       -7.32055095824852       -7.32798192615485
C           12.38576837618635       -6.72597349446144       -6.96924738969997
C           12.35743417554789       -5.75160227077248       -5.97657067958352
C           12.40694033948519       -1.97054946340757       -2.04685982417506
C           11.09678730207794       -2.28931312709909       -2.59128223756326
C           10.21831157315212       -1.55429802123603       -1.90077809047245
C           10.97145181790880       -0.77280743391277       -0.92970888881024
N           12.26549869763743       -1.01118048053973       -1.01382020769273
H            9.27013334538743        0.14931097068868        0.04677151005882
H            9.30682286145814        1.91743873484982        1.99147015535056
H           11.14325268354761        3.18415657337656        3.27330232529850
H           16.05038536098167        5.75166914493302        5.06962115858962
H           16.07726421707906        7.48349629951519        6.84542236593600
H           11.96116363373464        6.95332740415492        7.54766804888072
H           11.83295419583592        5.20889127886713        5.78877230034383
H           16.56478578241810        3.50434567809636        2.79690153657969
H           18.38954984847052        2.19692517010486        1.52332028418562
H           18.08259974923541       -2.41869275633221       -1.21922904707866
H           16.12608391873586       -3.76908419196340       -2.52036316639956
H           15.68351518506313       -5.75568165017547       -5.25846480238442
H           15.62207532122084       -7.48050330061530       -7.04010132299933
H           11.46171617907301       -7.01668232864923       -7.46773386579245
H           11.42087123821373       -5.28028760483348       -5.69673930506570
H           10.85127574811829       -2.98340365431952       -3.38498659149489
H            9.15026625670129       -1.55390960459296       -2.04714449840444
Co          32.05562055552399        0.01297474141512       -0.00192787400832
C           35.44027109801335       -0.07989256381319       -0.09247669042609
C           34.76831857087043       -1.22801164664276       -0.33785356369618
C           35.42347211144627       -2.49998391407041       -0.60328420348384
C           34.46914667818266       -3.40418111319834       -0.82425171160727
C           33.17727634522765       -2.72782729409599       -0.70917218771618
N           33.36597761915824       -1.36600086279505       -0.39920624876048
C           31.96620117577617       -3.33267404345331       -0.91218277739848
C           31.93570278780438       -4.72531177791379       -1.25086654940870
C           31.90268409973541       -5.90596734416496       -1.53586538233056
C           31.85867933545917       -7.29546542218475       -1.87361215001305
C           30.65628365056510       -7.89071019688831       -2.27445374659604
C           30.64664515236310       -9.24406775776985       -2.59565976452155
N           31.77194029224222       -9.98411707073264       -2.52578990724829
C           32.93898210975985       -9.42811702026177       -2.14152647333276
C           33.01634646062958       -8.08010322130622       -1.80741189338384
C           30.69767644591069       -2.62894241703496       -0.81509947226141
C           29.41096177477534       -3.21486949510370       -1.17845709713473
C           28.46649813529845       -2.29919926710422       -0.93797853071041
N           30.55382406000792       -1.39491562499695       -0.37214420068990
C           29.17595356267078       -1.14183427547427       -0.42343089913125
C           28.61710915144273        0.01012481951880        0.00748754470221
C           29.33623269124027        1.15688882776892        0.51974629530603
C           28.75484050648388        2.19410440544691        1.18365030126945
C           29.78058996950089        3.14503081509861        1.44223875060274
C           30.93869508566852        2.64827249011563        0.92288992208477
N           30.71604560787737        1.37754004132099        0.34144899854762
C           32.20884384053728        3.37533581788395        0.93261666914008
C           32.22324841797287        4.77426340594670        1.26749446492288
C           32.23346229879244        5.95788680843576        1.54715153212458
C           32.24136492602086        7.35114401621704        1.87904752495025
C           31.05178315026250        8.00566725883118        2.22057486510952
C           31.09168484644321        9.35979425241172        2.53704364936227
N           32.25293915315022       10.04467920575052        2.51918629973845
C           33.40860183425675        9.43153639176137        2.19308997234485
C           33.43692827695105        8.07945950475168        1.86651486543827
C           33.38726629223651        2.76583212709284        0.63887135784341
C           34.69746669199865        3.39672773462838        0.63315891217316
C           35.57602097755606        2.42682069278690        0.35682648761511
C           34.82314027245180        1.19208224224550        0.18464825008001
N           33.52862977146391        1.38710570441402        0.34636487946904
H           36.52426089216998       -0.11885077068646       -0.10537286004608
H           36.48750449721425       -2.69550838271551       -0.62433878922949
H           34.65116310118125       -4.44585737871647       -1.05337184981483
H           29.74399308358085       -7.30543606856414       -2.33458012118393
H           29.71711309875479       -9.71842308306018       -2.90915594347356
H           33.83321514319758      -10.04890066101778       -2.09367177630635
H           33.96142111696307       -7.64394547494618       -1.49960171425300
H           29.22907590080764       -4.20066473642935       -1.57250925732593
H           27.40424281732263       -2.43807142400249       -1.10486370507791
H           27.71200868219196        2.28622330389138        1.44869394872887
H           29.66799381720947        4.09545389390794        1.93939416442295
H           30.11087254024920        7.46529139165055        2.23865996308082
H           30.17230362089578        9.87969657502371        2.80423022919595
H           34.33266398880149       10.00857053866883        2.18666200778897
H           34.37350103643710        7.59735588888868        1.60569912736032
H           34.94304133672906        4.43426345524143        0.82132487401222
H           36.64408633788280        2.55236853051998        0.28138395828798
C           18.49116709408520        0.00294661891610       -0.00065111994643
C           19.79134276098524       -0.00908654246701       -0.01041732317585
C           21.03897394283195       -0.02886195709909       -0.00814898152630
C           22.31868096856717       -0.04052553527765       -0.01149858191391
C           23.58818424597314       -0.03101060735277       -0.01640817154071
C           24.80807219704920       -0.01249792627138       -0.02206752957629
C           26.09619707483528        0.01798549585827       -0.00654052858896
C           27.30478099747595        0.02899344675605        0.01350942446674
124
 energy: -223.772436994342 gnorm: 0.164780179167 xtb: 6.5.1 (b24c23e)
Co          13.74044997759979        0.00252244298424       -0.01026312868401
C           10.35991073280791        0.10575782669524        0.00621856887775
C           11.03642966586178        0.91517679142786        0.87901894347973
C           10.37708903695427        1.79023217707569        1.82560885742558
C           11.34115432615140        2.44927713573707        2.49359642929127
C           12.61682041238359        1.99720108194482        1.97045253615839
N           12.41806819344833        1.04833470856018        0.97890826111680
C           13.84472261986086        2.49508488942788        2.39243831935596
C           13.86436372981739        3.49490382253651        3.40411756411735
C           13.89275022130015        4.34405735552177        4.27470807208137
C           13.93523232908953        5.34179200581811        5.28888122830589
C           15.13251595612087        5.99818457626406        5.60254456490078
C           15.12889867229436        6.96344224311464        6.59727061366335
N           14.02239148798379        7.29064468667263        7.26999700189852
C           12.87365789966065        6.67309743162759        6.98198234496967
C           12.78325363601265        5.69649606593541        6.00250614944789
C           15.08381077601663        2.06481904346885        1.85044892802219
C           16.35895913227873        2.66421649113708        2.16419699744656
C           17.30707607567585        1.97499048365655        1.48417118731408
N           15.24010577272236        1.04164904984325        0.98682288226629
C           16.59666665302316        0.95684196177999        0.76269987340801
C           17.18562500525680       -0.03301112886772       -0.01740204736989
C           16.43845606486843       -1.03758792173894       -0.72858278053801
C           17.03493953905896       -2.15922005178392       -1.29486446593110
C           16.03483014865002       -2.85174770187600       -1.96379430277248
C           14.84708692069295       -2.14155641448493       -1.79606646871772
N           15.07348322611130       -1.01982107715176       -0.99037359693307
C           13.60734078257846       -2.52911847032643       -2.41367689166702
C           13.58587660981056       -3.53312067870880       -3.43360181536921
C           13.56642660969760       -4.38054403657057       -4.30959459942244
C           13.55333102706805       -5.37653980968881       -5.33304532250509
C           14.73676735316460       -6.01427229757206       -5.72949080625406
C           14.68380376182408       -6.97627583242275       -6.72686527505633
N           13.54131870683484       -7.31948940675454       -7.32690686824547
C           12.40463105363767       -6.72187889727809       -6.96089728869356
C           12.36335083474686       -5.74931970624664       -5.97287777303300
C           12.40966598100938       -1.95829401573242       -2.04048082539835
C           11.10980126158684       -2.28087592173436       -2.58058186154692
C           10.21431295227369       -1.54422625769783       -1.88603713835637
C           10.95825545188025       -0.76395918273881       -0.92168300072097
N           12.27575703870357       -1.00420537206082       -1.02323575951108
H            9.27520573232698        0.14384091016746        0.03763008314557
H            9.31227524491126        1.90422678327536        1.97725347958385
H           11.16743074264582        3.18173181109162        3.27008051825723
H           16.04650769076532        5.75221963919999        5.07148554907954
H           16.05623782241324        7.48164709276876        6.84984833287190
H           11.98219180354767        6.95690010063999        7.54500791127966
H           11.83667623635914        5.21046228660840        5.78923341914093
H           16.54633210383226        3.50802828494368        2.80536854656517
H           18.37212307108803        2.17901891496331        1.51059347066683
H           18.07850863909582       -2.42359154388695       -1.22424300821497
H           16.13434371547076       -3.76918001491356       -2.52024048364255
H           15.68004268284620       -5.75599409063556       -5.25958916645113
H           15.60068988370035       -7.47840430235489       -7.04257596350648
H           11.48300518244155       -7.01915600020166       -7.46565309992221
H           11.42434955436715       -5.28106045916011       -5.69681799882258
H           10.87410067993054       -2.97735711348572       -3.37588322876502
H            9.14700136770422       -1.54368369856310       -2.03475593714669
Co          32.05667901981963        0.00556647169577       -0.00846965666051
C           35.43458570382510       -0.06160284987497       -0.08875670658025
C           34.75817772687418       -1.22640045324557       -0.33538362183743
C           35.41775723045406       -2.48801134637720       -0.60032798386611
C           34.45422890243676       -3.39982769149072       -0.82301281560489
C           33.17845894850517       -2.71937933598676       -0.70399161249670
N           33.37739122787688       -1.38125696149983       -0.39889644353170
C           31.95244921048939       -3.33865667345146       -0.91516101145545
C           31.93100380004924       -4.71907526062131       -1.25301867425292
C           31.90182790885283       -5.90163547959627       -1.53504197692471
C           31.85912560896135       -7.28368609441741       -1.87037089885772
C           30.66179856050099       -7.88956331535471       -2.27261668154180
C           30.66544466104994       -9.23864438504018       -2.59028979272684
N           31.77197328431920       -9.98396843172391       -2.52574364465771
C           32.92073644587968       -9.41975229628371       -2.14362706996021
C           33.01115825667593       -8.07794981669558       -1.80837430488134
C           30.71490303793354       -2.65285205509466       -0.82419665010762
C           29.43508431649540       -3.22759122765237       -1.17690536634707
C           28.49036029078005       -2.29008931645371       -0.93386274850242
N           30.56757222231148       -1.39038230026319       -0.39078079083268
C           29.21185144237631       -1.14823430356287       -0.43099932144409
C           28.66201336579203        0.02994174078026        0.02256589164898
C           29.37224511068685        1.15736439763017        0.51887187973253
C           28.76508000261239        2.21905986721085        1.18708195309377
C           29.76052127903752        3.14891183677136        1.43819196200648
C           30.95133277358578        2.64246191991826        0.91630423160042
N           30.73273694379534        1.37714433525751        0.36823471009640
C           32.18884330446598        3.36938914128242        0.93088222428621
C           32.20946133731953        4.75943125567851        1.26835560253964
C           32.22828636153525        5.94584705252262        1.54593019551127
C           32.24106814464098        7.33511319761716        1.87507865978910
C           31.05757918512710        8.00244764619202        2.21881002762903
C           31.11055359922383        9.35215808823887        2.53234798348412
N           32.25305220911041       10.04331935416098        2.51884899415124
C           33.38976696008836        9.42243045071676        2.19388757227200
C           33.43106611410378        8.07534564779576        1.86648490618539
C           33.38552948938599        2.75464940612905        0.63188442249768
C           34.68512163236420        3.38341827372863        0.63128532175708
C           35.58034220894481        2.40903189732395        0.35571700816912
C           34.83653935800847        1.18076261126106        0.18117225897192
N           33.51874578782105        1.39206702758195        0.33552132254820
H           36.51925522283452       -0.10823486978514       -0.10537285511048
H           36.48251568108684       -2.67648814618733       -0.62028102623626
H           34.62756972008692       -4.44212797283336       -1.05299497964710
H           29.74788004783427       -7.30738746870754       -2.33411691878407
H           29.73809264866520       -9.72137300629173       -2.90533294563922
H           33.81222161292015      -10.04856444483904       -2.09812913122601
H           33.95767815503530       -7.64523398216249       -1.50074801469393
H           29.24763204361209       -4.21088614012763       -1.57175776009602
H           27.42414141201700       -2.41491804907742       -1.09449006748879
H           27.71953426997814        2.29077751564254        1.44868082043912
H           29.65965601493935        4.09676400318318        1.93982707285361
H           30.11435642857168        7.46646952438448        2.23836232590451
H           30.19365368589398        9.88082236344021        2.80118194517927
H           34.31140683474153       10.00815894727381        2.18987033566337
H           34.37001289652971        7.59790652557395        1.60634216335299
H           34.92065535832045        4.42346703330410        0.82076417851605
H           36.64759698033784        2.53641576694690        0.27893885823954
C           18.54338952335334       -0.01792962265426       -0.01662636563944
C           19.72821088516782       -0.01808945630215       -0.01697592072289
C           21.03391638761735       -0.03009363389478       -0.00704936454555
C           22.25666152557034       -0.03885395461998       -0.01177856039279
C           23.55791366293310       -0.03117267860192       -0.01653275933341
C           24.79551715287969       -0.01457829593297       -0.02039866661759
C           26.08806328099977        0.02780882545098       -0.00490169406860
C           27.30755680399128        0.05488650175985        0.01868224425293
124
 energy: -223.800318206349 gnorm: 0.092787893303 xtb: 6.5.1 (b24c23e)
Co          13.73210352242164        0.00989572278792       -0.00852195533647
C           10.36462080772349        0.09936907332608       -0.00209019164570
C           11.04283838557085        0.91230217650658        0.88123533643430
C           10.38238905817371        1.78160214839446        1.81905523517305
C           11.35098329531830        2.44403961226976        2.49144431107671
C           12.61151133562107        1.99070024315491        1.96985545372226
N           12.40882420943875        1.05305361758049        0.99005761012435
C           13.84293155534534        2.50299497826387        2.39546933657229