380
 energy: -665.992337944750 gnorm: 1.518231610014 xtb: 6.5.1 (b24c23e)
C           69.88448099999998       -0.03176000000000        0.09015500000000
C           70.61269999999999        1.34420400000000        0.16890700000000
C           70.00539200000000        2.56586400000000        0.34727500000000
C           71.02801199999999        3.54869800000000        0.30020400000000
C           72.22548200000000        2.89294200000000        0.08512800000000
N           71.96473700000000        1.54567500000000        0.05376200000000
C           73.64832300000000        3.56174400000000       -0.11782300000000
C           73.68772000000000        5.02771900000000       -0.32155200000000
C           73.99206900000000        5.87902800000000        0.74770900000000
C           74.02100200000000        7.26273200000000        0.56068300000000
C           73.74450200000000        7.80255700000000       -0.69997200000000
C           73.77529600000000        9.22231200000000       -0.89586100000000
N           73.79902099999998       10.37179600000000       -1.06014800000000
C           73.43780599999999        6.95514900000000       -1.77044500000000
C           73.40958200000000        5.57117700000000       -1.57975800000000
C           74.77859599999999        2.80525900000000       -0.14130600000000
C           76.08168900000000        3.38615400000000       -0.39339300000000
C           76.98511600000000        2.41353500000000       -0.37723300000000
N           74.97671400000000        1.45976300000000        0.02647400000000
C           76.30867499999999        1.16081300000000       -0.10274100000000
C           76.98004100000000       -0.01883900000000       -0.01742000000000
C           76.20689500000000       -1.36683600000000        0.30950400000000
C           76.76059500000000       -2.51826200000000        0.83670800000000
C           75.73328099999999       -3.49141800000000        0.90931900000000
C           74.57958700000000       -2.90532800000000        0.43375700000000
N           74.86503000000000       -1.59674400000000        0.12728400000000
C           73.16650700000000       -3.60817600000000        0.27923900000000
C           73.13412700000001       -5.08395300000000        0.19249700000000
C           72.79176699999999       -5.85456400000000        1.31078100000000
C           72.77036699999999       -7.24774000000000        1.22542600000000
C           73.09564200000000       -7.87910800000000        0.01978400000000
C           73.07197799999999       -9.30940900000000       -0.07043400000000
N           73.05378399999999      -10.46839900000000       -0.14415400000000
C           73.44229600000000       -7.11252700000000       -1.09884900000000
C           73.46064400000000       -5.71949100000000       -1.01065800000000
C           72.03916099999999       -2.85567500000000        0.19488200000000
C           70.71576399999999       -3.43431100000000        0.03939300000000
C           69.82843600000000       -2.44413000000000        0.00198100000000
C           70.55073500000000       -1.20137200000000        0.11518800000000
N           71.87313200000000       -1.49909000000000        0.22465500000000
H           68.80563500000000       -0.03031500000000       -0.01086400000000
H           68.94743199999999        2.73179200000000        0.48032600000000
H           70.89973700000000        4.61681600000000        0.38905800000000
H           72.66413699999998        0.81306400000000       -0.03666000000000
H           74.21058700000000        5.44520000000000        1.72228600000000
H           74.26081999999998        7.90474900000000        1.40380500000000
H           73.22207599999999        7.35528200000000       -2.75678400000000
H           73.17419099999999        4.90201100000000       -2.40418300000000
H           76.29461999999999        4.42372100000000       -0.57908300000000
H           78.03764099999999        2.55611100000000       -0.54109300000000
H           77.79370600000000       -2.65234100000000        1.11950800000000
H           75.83154599999999       -4.50897000000000        1.25154100000000
H           74.17712600000000       -0.90114100000000       -0.15226600000000
H           72.53729499999999       -5.35082800000000        2.24109300000000
H           72.49898199999998       -7.82660300000000        2.10395700000000
H           73.70050900000000       -7.58374500000000       -2.04365100000000
H           73.72426200000000       -5.11111900000000       -1.87499700000000
H           70.48422900000000       -4.48116700000000       -0.03348100000000
H           68.76314800000000       -2.54402700000000       -0.10524000000000
C          159.19807399999996        0.02344600000000        0.08233600000000
C          158.46985499999997       -1.27653400000000        0.54008300000000
C          159.07716299999998       -2.40061600000000        1.05067800000000
C          158.05454299999997       -3.35786700000000        1.27838100000000
C          156.85707300000001       -2.78762600000000        0.88966600000000
N          157.11781800000000       -1.50205600000000        0.48541300000000
C          155.43423199999998       -3.48648200000000        0.88041800000000
C          155.39483500000000       -4.95137500000000        1.09178700000000
C          155.09048600000000       -5.47228000000000        2.35539500000000
C          155.06155300000000       -6.85349900000000        2.55996500000000
C          155.33805400000000       -7.72216400000000        1.49879500000000
C          155.30726000000001       -9.14047700000000        1.70486200000000
N          155.28353499999997      -10.29037400000000        1.86623600000000
C          155.64474899999996       -7.20534300000000        0.23510600000000
C          155.67297400000001       -5.82285000000000        0.03397800000000
C          154.30395899999999       -2.76627000000000        0.64779000000000
C          153.00086599999997       -3.39432000000000        0.56692600000000
C          152.09743900000001       -2.45546700000000        0.31236400000000
N          154.10584200000000       -1.42710100000000        0.43534100000000
C          152.77387999999999       -1.17579000000000        0.22819200000000
C          152.10251400000001       -0.01883900000000       -0.01742000000000
C          152.87566000000001        1.36692500000000       -0.07767900000000
C          152.32196099999999        2.61946500000000        0.10905200000000
C          153.34927499999998        3.57451100000000       -0.09142900000000
C          154.50296800000001        2.87941300000000       -0.38553600000000
N          154.21752499999999        1.53719000000000       -0.31657500000000
C          155.91604899999999        3.51171100000000       -0.72915000000000
C          155.94842900000000        4.90536000000000       -1.22228900000000
C          156.29078799999996        5.95619900000000       -0.36197800000000
C          156.31218799999999        7.27087900000000       -0.83084700000000
C          155.98691299999999        7.54262200000000       -2.16439700000000
C          156.01057799999998        8.89161800000000       -2.64824600000000
N          156.02877200000000        9.98455400000000       -3.04090600000000
C          155.64025899999999        6.49555800000000       -3.02616300000000
C          155.62191100000001        5.18179800000000       -2.55460800000000
C          157.04339400000001        2.76538000000000       -0.60122800000000
C          158.36679100000001        3.27808100000000       -0.91128300000000
C          159.25412000000000        2.31645400000000       -0.67226000000000
C          158.53182099999998        1.15400900000000       -0.21840400000000
N          157.20942400000001        1.47041600000000       -0.19591600000000
H          160.27692099999999       -0.00599400000000       -0.01430900000000
H          160.13512299999999       -2.52307200000000        1.22457300000000
H          158.18281800000000       -4.35930300000000        1.66034600000000
H          156.41841800000000       -0.82336700000000        0.19510800000000
H          154.87196800000001       -4.78488400000000        3.17117300000000
H          154.82173499999996       -7.23614000000000        3.54820900000000
H          155.86047899999997       -7.86363600000000       -0.60132900000000
H          155.90836400000001       -5.40893600000000       -0.94384300000000
H          152.78793499999998       -4.44264600000000        0.67666000000000
H          151.04491499999997       -2.63793700000000        0.19454100000000
H          151.28884900000000        2.82680300000000        0.34349700000000
H          153.25100899999998        4.64707600000000       -0.04523000000000
H          154.90543000000000        0.79131700000000       -0.39196900000000
H          156.54526100000001        5.73061300000000        0.67162900000000
H          156.58357299999997        8.07093600000000       -0.14761200000000
H          155.38204600000000        6.68588100000000       -4.06465900000000
H          155.35829300000000        4.35733400000000       -3.21601400000000
H          158.59832699999998        4.26352900000000       -1.27199200000000
H          160.31940799999998        2.38264800000000       -0.80300600000000
C           83.19464399999998       -0.01773700000000       -0.00893000000000
C           81.98570400000000       -0.03119200000000       -0.01737700000000
C           80.56417600000000       -0.02237300000000       -0.02936000000000
C           79.35250600000001       -0.01493400000000       -0.01849700000000
C           84.61124800000000       -0.02441200000000       -0.00839700000000
C           85.83194399999998       -0.01493400000000       -0.01849700000000
C           99.16988299999998       -0.01773700000000       -0.00893000000000
C           97.96094299999999       -0.03119200000000       -0.01737700000000
C           96.53941399999999       -0.02237300000000       -0.02936000000000
C           95.32774499999999       -0.01493400000000       -0.01849700000000
C          100.58648700000001       -0.02441200000000       -0.00839700000000
C          101.80718299999998       -0.01493400000000       -0.01849700000000
C          115.14512200000000       -0.01773700000000       -0.00893000000000
C          113.93618199999999       -0.03119200000000       -0.01737700000000
C          112.51465300000000       -0.02237300000000       -0.02936000000000
C          111.30298400000000       -0.01493400000000       -0.01849700000000
C          116.56172599999998       -0.02441200000000       -0.00839700000000
C          117.78242200000000       -0.01493400000000       -0.01849700000000
C          131.12036000000001       -0.01773700000000       -0.00893000000000
C          129.91142099999999       -0.03119200000000       -0.01737700000000
C          128.48989200000000       -0.02237300000000       -0.02936000000000
C          127.27822300000000       -0.01493400000000       -0.01849700000000
C          132.53696500000001       -0.02441200000000       -0.00839700000000
C          133.75766100000001       -0.01493400000000       -0.01849700000000
C          147.09559899999999       -0.01773700000000       -0.00893000000000
C          145.88665999999998       -0.03119200000000       -0.01737700000000
C          144.46513100000001       -0.02237300000000       -0.02936000000000
C          143.25346200000001       -0.01493400000000       -0.01849700000000
C          148.51220400000000       -0.02441200000000       -0.00839700000000
C          149.73289999999997       -0.01493400000000       -0.01849700000000
C           86.99936699999999        0.01151300000000        0.01125200000000
C           87.79460099999999        1.16324400000000       -0.73048500000000
C           87.29343500000000        2.38361200000000       -1.13524500000000
C           88.33199700000000        3.05933700000000       -1.82596300000000
C           89.43577600000000        2.23248100000000       -1.81593900000000
N           89.12137199999998        1.11705000000000       -1.08118100000000
C           90.82260499999998        2.50621100000000       -2.52718500000000
C           90.81047200000000        3.35159600000000       -3.74155000000000
C           90.33381100000000        2.83276000000000       -4.95098600000000
C           90.30719000000001        3.62944500000000       -6.09782600000000
C           90.75641399999999        4.95360000000000       -6.03934500000000
C           90.73033700000001        5.77268600000000       -7.21531800000000
N           90.70904800000000        6.43866600000000       -8.16735000000000
C           91.23052000000000        5.47811000000000       -4.83150600000000
C           91.25488500000000        4.67871700000000       -3.68676500000000
C           91.95898199999999        1.93395200000000       -2.05084500000000
C           93.24440199999999        2.10513200000000       -2.69646900000000
C           94.15348299999999        1.42507100000000       -2.00621500000000
N           92.16882000000000        1.12293000000000       -0.97088900000000
C           93.49299599999999        0.78537500000000       -0.88651700000000
C           94.15732199999999        0.01151300000000        0.01125200000000
C           93.36210500000000       -0.66191900000000        1.20422000000000
C           93.86335600000000       -0.99514200000000        2.44598900000000
C           92.82480099999999       -1.64534600000000        3.16078700000000
C           91.72092000000001       -1.68317300000000        2.33487600000000
N           92.03527099999999       -1.01447600000000        1.17862000000000
C           90.33409500000000       -2.37730100000000        2.64956800000000
C           90.34641400000000       -3.54074500000000        3.56377700000000
C           90.82471699999999       -4.77765800000000        3.11610100000000
C           90.85154700000000       -5.87657800000000        3.97765700000000
C           90.40091099999999       -5.74221400000000        5.29578900000000
C           90.42715099999999       -6.86898200000000        6.18133900000000
N           90.44851500000000       -7.78110300000000        6.90098800000000
C           89.92521599999999       -4.50655500000000        5.74925900000000
C           89.90067300000000       -3.40986400000000        4.88511100000000
C           89.19768800000000       -1.93501900000000        2.05064300000000
C           87.91231799999998       -2.56975700000000        2.25890000000000
C           87.00322799999999       -1.92027500000000        1.53981700000000
C           87.66366399999998       -0.83957400000000        0.83619500000000
N           88.98779700000000       -0.90397000000000        1.17829800000000
H           86.28784200000000        2.74072400000000       -0.97207000000000
H           88.27409999999999        4.03002100000000       -2.29466300000000
H           89.77890800000000        0.39461000000000       -0.80233100000000
H           89.98638099999999        1.80162800000000       -4.98505000000000
H           89.93450500000000        3.20495300000000       -7.02632200000000
H           91.58398099999998        6.50375300000000       -4.76705100000000
H           91.62323600000001        5.07408100000000       -2.74166300000000
H           93.44016799999999        2.67424300000000       -3.58730900000000
H           95.19757999999999        1.36759500000000       -2.25465100000000
H           94.86899899999999       -0.81165600000000        2.79291100000000
H           92.88274199999999       -2.05694400000000        4.15703700000000
H           91.37765799999998       -0.77783500000000        0.44137300000000
H           91.17327700000000       -4.87084900000000        2.08900800000000
H           91.22550300000000       -6.82766900000000        3.60781600000000
H           89.57064300000000       -4.38336300000000        6.76913300000000
H           89.53112600000000       -2.44385500000000        5.22493100000000
H           87.71660000000000       -3.42610600000000        2.87871100000000
H           85.95917600000000       -2.17179800000000        1.49671300000000
C          102.97460599999999        0.01151300000000        0.01125200000000
C          103.76983999999999        1.16324400000000       -0.73048500000000
C          103.26867400000000        2.38361200000000       -1.13524500000000
C          104.30723599999999        3.05933700000000       -1.82596300000000
C          105.41101399999999        2.23248100000000       -1.81593900000000
N          105.09661000000000        1.11705000000000       -1.08118100000000
C          106.79784399999998        2.50621100000000       -2.52718500000000
C          106.78571099999999        3.35159600000000       -3.74155000000000
C          106.30905000000000        2.83276000000000       -4.95098600000000
C          106.28242899999999        3.62944500000000       -6.09782600000000
C          106.73165299999999        4.95360000000000       -6.03934500000000
C          106.70557599999998        5.77268600000000       -7.21531800000000
N          106.68428699999998        6.43866600000000       -8.16735000000000
C          107.20575900000000        5.47811000000000       -4.83150600000000
C          107.23012400000000        4.67871700000000       -3.68676500000000
C          107.93422099999998        1.93395200000000       -2.05084500000000
C          109.21964100000000        2.10513200000000       -2.69646900000000
C          110.12872200000000        1.42507100000000       -2.00621500000000
N          108.14405900000000        1.12293000000000       -0.97088900000000
C          109.46823500000001        0.78537500000000       -0.88651700000000
C          110.13256000000000        0.01151300000000        0.01125200000000
C          109.33734400000000       -0.66191900000000        1.20422000000000
C          109.83859500000000       -0.99514200000000        2.44598900000000
C          108.80003999999998       -1.64534600000000        3.16078700000000
C          107.69615899999999       -1.68317300000000        2.33487600000000
N          108.01051000000000       -1.01447600000000        1.17862000000000
C          106.30933400000001       -2.37730100000000        2.64956800000000
C          106.32165300000000       -3.54074500000000        3.56377700000000
C          106.79995599999998       -4.77765800000000        3.11610100000000
C          106.82678599999998       -5.87657800000000        3.97765700000000
C          106.37615000000000       -5.74221400000000        5.29578900000000
C          106.40239000000000       -6.86898200000000        6.18133900000000
N          106.42375400000000       -7.78110300000000        6.90098800000000
C          105.90045400000000       -4.50655500000000        5.74925900000000
C          105.87591200000000       -3.40986400000000        4.88511100000000
C          105.17292700000000       -1.93501900000000        2.05064300000000
C          103.88755699999999       -2.56975700000000        2.25890000000000
C          102.97846699999999       -1.92027500000000        1.53981700000000
C          103.63890300000000       -0.83957400000000        0.83619500000000
N          104.96303600000000       -0.90397000000000        1.17829800000000
H          102.26308099999999        2.74072400000000       -0.97207000000000
H          104.24933799999999        4.03002100000000       -2.29466300000000
H          105.75414700000000        0.39461000000000       -0.80233100000000
H          105.96161999999998        1.80162800000000       -4.98505000000000
H          105.90974400000000        3.20495300000000       -7.02632200000000
H          107.55922000000000        6.50375300000000       -4.76705100000000
H          107.59847499999998        5.07408100000000       -2.74166300000000
H          109.41540699999999        2.67424300000000       -3.58730900000000
H          111.17281899999999        1.36759500000000       -2.25465100000000
H          110.84423799999999       -0.81165600000000        2.79291100000000
H          108.85798100000000       -2.05694400000000        4.15703700000000
H          107.35289699999998       -0.77783500000000        0.44137300000000
H          107.14851600000000       -4.87084900000000        2.08900800000000
H          107.20074200000001       -6.82766900000000        3.60781600000000
H          105.54588200000001       -4.38336300000000        6.76913300000000
H          105.50636500000000       -2.44385500000000        5.22493100000000
H          103.69183900000000       -3.42610600000000        2.87871100000000
H          101.93441500000000       -2.17179800000000        1.49671300000000
C          118.94984500000000        0.01151300000000        0.01125200000000
C          119.74507899999999        1.16324400000000       -0.73048500000000
C          119.24391300000001        2.38361200000000       -1.13524500000000
C          120.28247499999999        3.05933700000000       -1.82596300000000
C          121.38625299999998        2.23248100000000       -1.81593900000000
N          121.07184900000000        1.11705000000000       -1.08118100000000
C          122.77308300000000        2.50621100000000       -2.52718500000000
C          122.76094999999998        3.35159600000000       -3.74155000000000
C          122.28428899999999        2.83276000000000       -4.95098600000000
C          122.25766799999998        3.62944500000000       -6.09782600000000
C          122.70689200000000        4.95360000000000       -6.03934500000000
C          122.68081499999998        5.77268600000000       -7.21531800000000
N          122.65952599999999        6.43866600000000       -8.16735000000000
C          123.18099800000000        5.47811000000000       -4.83150600000000
C          123.20536299999999        4.67871700000000       -3.68676500000000
C          123.90946000000000        1.93395200000000       -2.05084500000000
C          125.19488000000000        2.10513200000000       -2.69646900000000
C          126.10396100000000        1.42507100000000       -2.00621500000000
N          124.11929800000000        1.12293000000000       -0.97088900000000
C          125.44347399999999        0.78537500000000       -0.88651700000000
C          126.10779900000000        0.01151300000000        0.01125200000000
C          125.31258200000001       -0.66191900000000        1.20422000000000
C          125.81383399999999       -0.99514200000000        2.44598900000000
C          124.77527899999998       -1.64534600000000        3.16078700000000
C          123.67139800000000       -1.68317300000000        2.33487600000000
N          123.98574900000000       -1.01447600000000        1.17862000000000
C          122.28457299999998       -2.37730100000000        2.64956800000000
C          122.29689200000000       -3.54074500000000        3.56377700000000
C          122.77519499999998       -4.77765800000000        3.11610100000000
C          122.80202399999999       -5.87657800000000        3.97765700000000
C          122.35138900000000       -5.74221400000000        5.29578900000000
C          122.37762900000000       -6.86898200000000        6.18133900000000
N          122.39899299999999       -7.78110300000000        6.90098800000000
C          121.87569300000000       -4.50655500000000        5.74925900000000
C          121.85115100000000       -3.40986400000000        4.88511100000000
C          121.14816599999999       -1.93501900000000        2.05064300000000
C          119.86279600000000       -2.56975700000000        2.25890000000000
C          118.95370499999999       -1.92027500000000        1.53981700000000
C          119.61414200000000       -0.83957400000000        0.83619500000000
N          120.93827500000000       -0.90397000000000        1.17829800000000
H          118.23831999999999        2.74072400000000       -0.97207000000000
H          120.22457700000000        4.03002100000000       -2.29466300000000
H          121.72938600000001        0.39461000000000       -0.80233100000000
H          121.93685899999998        1.80162800000000       -4.98505000000000
H          121.88498299999999        3.20495300000000       -7.02632200000000
H          123.53445900000000        6.50375300000000       -4.76705100000000
H          123.57371399999998        5.07408100000000       -2.74166300000000
H          125.39064600000000        2.67424300000000       -3.58730900000000
H          127.14805699999999        1.36759500000000       -2.25465100000000
H          126.81947700000001       -0.81165600000000        2.79291100000000
H          124.83321999999998       -2.05694400000000        4.15703700000000
H          123.32813600000000       -0.77783500000000        0.44137300000000
H          123.12375500000000       -4.87084900000000        2.08900800000000
H          123.17598099999998       -6.82766900000000        3.60781600000000
H          121.52112099999998       -4.38336300000000        6.76913300000000
H          121.48160400000000       -2.44385500000000        5.22493100000000
H          119.66707800000000       -3.42610600000000        2.87871100000000
H          117.90965400000000       -2.17179800000000        1.49671300000000
C          134.92508400000000        0.01151300000000        0.01125200000000
C          135.72031799999996        1.16324400000000       -0.73048500000000
C          135.21915200000001        2.38361200000000       -1.13524500000000
C          136.25771399999999        3.05933700000000       -1.82596300000000
C          137.36149200000000        2.23248100000000       -1.81593900000000
N          137.04708800000000        1.11705000000000       -1.08118100000000
C          138.74832200000000        2.50621100000000       -2.52718500000000
C          138.73618900000000        3.35159600000000       -3.74155000000000
C          138.25952699999999        2.83276000000000       -4.95098600000000
C          138.23290700000001        3.62944500000000       -6.09782600000000
C          138.68213099999997        4.95360000000000       -6.03934500000000
C          138.65605400000001        5.77268600000000       -7.21531800000000
N          138.63476499999999        6.43866600000000       -8.16735000000000
C          139.15623700000000        5.47811000000000       -4.83150600000000
C          139.18060199999999        4.67871700000000       -3.68676500000000
C          139.88469799999999        1.93395200000000       -2.05084500000000
C          141.17011900000000        2.10513200000000       -2.69646900000000
C          142.07919999999999        1.42507100000000       -2.00621500000000
N          140.09453700000000        1.12293000000000       -0.97088900000000
C          141.41871299999997        0.78537500000000       -0.88651700000000
C          142.08303799999999        0.01151300000000        0.01125200000000
C          141.28782100000001       -0.66191900000000        1.20422000000000
C          141.78907300000000       -0.99514200000000        2.44598900000000
C          140.75051800000000       -1.64534600000000        3.16078700000000
C          139.64663700000000       -1.68317300000000        2.33487600000000
N          139.96098799999999       -1.01447600000000        1.17862000000000
C          138.25981200000001       -2.37730100000000        2.64956800000000
C          138.27213100000000       -3.54074500000000        3.56377700000000
C          138.75043400000001       -4.77765800000000        3.11610100000000
C          138.77726300000000       -5.87657800000000        3.97765700000000
C          138.32662800000000       -5.74221400000000        5.29578900000000
C          138.35286800000000       -6.86898200000000        6.18133900000000
N          138.37423200000001       -7.78110300000000        6.90098800000000
C          137.85093200000000       -4.50655500000000        5.74925900000000
C          137.82638999999998       -3.40986400000000        4.88511100000000
C          137.12340499999999       -1.93501900000000        2.05064300000000
C          135.83803499999999       -2.56975700000000        2.25890000000000
C          134.92894400000000       -1.92027500000000        1.53981700000000
C          135.58938000000001       -0.83957400000000        0.83619500000000
N          136.91351399999999       -0.90397000000000        1.17829800000000
H          134.21355900000000        2.74072400000000       -0.97207000000000
H          136.19981599999997        4.03002100000000       -2.29466300000000
H          137.70462499999996        0.39461000000000       -0.80233100000000
H          137.91209799999999        1.80162800000000       -4.98505000000000
H          137.86022199999999        3.20495300000000       -7.02632200000000
H          139.50969799999996        6.50375300000000       -4.76705100000000
H          139.54895300000001        5.07408100000000       -2.74166300000000
H          141.36588499999996        2.67424300000000       -3.58730900000000
H          143.12329599999998        1.36759500000000       -2.25465100000000
H          142.79471599999999       -0.81165600000000        2.79291100000000
H          140.80845900000000       -2.05694400000000        4.15703700000000
H          139.30337499999996       -0.77783500000000        0.44137300000000
H          139.09899400000000       -4.87084900000000        2.08900800000000
H          139.15121900000000       -6.82766900000000        3.60781600000000
H          137.49636000000001       -4.38336300000000        6.76913300000000
H          137.45684299999999       -2.44385500000000        5.22493100000000
H          135.64231699999999       -3.42610600000000        2.87871100000000
H          133.88489300000001       -2.17179800000000        1.49671300000000
380
 energy: -666.575524469421 gnorm: 0.668808902607 xtb: 6.5.1 (b24c23e)
C           69.89936864173869       -0.00854762831174        0.09132504134003
C           70.60826707039811        1.32923251244199        0.16822133990295