      -----------------------------------------------------------      
     |                   =====================                   |     
     |                           x T B                           |     
     |                   =====================                   |     
     |                         S. Grimme                         |     
     |          Mulliken Center for Theoretical Chemistry        |     
     |                    University of Bonn                     |     
      -----------------------------------------------------------      

   * xtb version 6.5.1 (b24c23e) compiled by 'conda@728c89f4b128' on 2022-07-12

   xtb is free software: you can redistribute it and/or modify it under
   the terms of the GNU Lesser General Public License as published by
   the Free Software Foundation, either version 3 of the License, or
   (at your option) any later version.
   
   xtb is distributed in the hope that it will be useful,
   but WITHOUT ANY WARRANTY; without even the implied warranty of
   MERCHANTABILITY or FITNESS FOR A PARTICULAR PURPOSE.  See the
   GNU Lesser General Public License for more details.
   
   Cite this work as:
   * C. Bannwarth, E. Caldeweyher, S. Ehlert, A. Hansen, P. Pracht,
     J. Seibert, S. Spicher, S. Grimme, WIREs Comput. Mol. Sci., 2020, 11,
     e01493. DOI: 10.1002/wcms.1493
   
   for GFN2-xTB:
   * C. Bannwarth, S. Ehlert and S. Grimme., J. Chem. Theory Comput., 2019,
     15, 1652-1671. DOI: 10.1021/acs.jctc.8b01176
   for GFN1-xTB:
   * S. Grimme, C. Bannwarth, P. Shushkov, J. Chem. Theory Comput., 2017,
     13, 1989-2009. DOI: 10.1021/acs.jctc.7b00118
   for GFN0-xTB:
   * P. Pracht, E. Caldeweyher, S. Ehlert, S. Grimme, ChemRxiv, 2019, preprint.
     DOI: 10.26434/chemrxiv.8326202.v1
   for GFN-FF:
   * S. Spicher and S. Grimme, Angew. Chem. Int. Ed., 2020, 59, 15665-15673.
     DOI: 10.1002/anie.202004239
   
   for ALPB and GBSA implicit solvation:
   * S. Ehlert, M. Stahn, S. Spicher, S. Grimme, J. Chem. Theory Comput.,
     2021, 17, 4250-4261. DOI: 10.1021/acs.jctc.1c00471
   
   for DFT-D4:
   * E. Caldeweyher, C. Bannwarth and S. Grimme, J. Chem. Phys., 2017,
     147, 034112. DOI: 10.1063/1.4993215
   * E. Caldeweyher, S. Ehlert, A. Hansen, H. Neugebauer, S. Spicher,
     C. Bannwarth and S. Grimme, J. Chem. Phys., 2019, 150, 154122.
     DOI: 10.1063/1.5090222
   * E. Caldeweyher, J.-M. Mewes, S. Ehlert and S. Grimme, Phys. Chem. Chem. Phys.
     2020, 22, 8499-8512. DOI: 10.1039/D0CP00502A
   
   for sTDA-xTB:
   * S. Grimme and C. Bannwarth, J. Chem. Phys., 2016, 145, 054103.
     DOI: 10.1063/1.4959605
   
   in the mass-spec context:
   * V. Asgeirsson, C. Bauer and S. Grimme, Chem. Sci., 2017, 8, 4879.
     DOI: 10.1039/c7sc00601b
   * J. Koopman and S. Grimme, ACS Omega 2019, 4, 12, 15120-15133.
     DOI: 10.1021/acsomega.9b02011
   
   for metadynamics refer to:
   * S. Grimme, J. Chem. Theory Comput., 2019, 155, 2847-2862
     DOI: 10.1021/acs.jctc.9b00143
   
   for SPH calculations refer to:
   * S. Spicher and S. Grimme, J. Chem. Theory Comput., 2021, 17, 1701-1714
     DOI: 10.1021/acs.jctc.0c01306
   
   with help from (in alphabetical order)
   P. Atkinson, C. Bannwarth, F. Bohle, G. Brandenburg, E. Caldeweyher
   M. Checinski, S. Dohm, S. Ehlert, S. Ehrlich, I. Gerasimov, C. Hölzer
   A. Katbashev, J. Koopman, C. Lavigne, S. Lehtola, F. März, M. Müller,
   F. Musil, H. Neugebauer, J. Pisarek, C. Plett, P. Pracht, F. Pultar,
   J. Seibert, P. Shushkov, S. Spicher, M. Stahn, M. Steiner, T. Strunk,
   J. Stückrath, T. Rose, and J. Unsleber
   
 * started run on 2022/07/30 at 11:28:26.637     

           -------------------------------------------------
          |                Calculation Setup                |
           -------------------------------------------------

          program call               : xtb xtbopt.xyz --gfn 1 --vipea
          hostname                   : cx3-15-15.cx3.hpc.ic.ac.uk
          coordinate file            : xtbopt.xyz
          omp threads                :                     1

   ID    Z sym.   atoms
    1   30 Zn     1, 63, 149, 210
    2    6 C      2-6, 8-12, 15-20, 22-27, 29-35, 38-42, 64-68, 70-74, 77-82,
                  84-89, 91-97, 100-104, 125-148, 150-154, 156-160, 163-168,
                  170-175, 177-183, 186-190, 211-215, 217-221, 224-229,
                  231-236, 238-244, 247-251
    3    7 N      7, 21, 28, 43, 69, 83, 90, 105, 155, 169, 176, 191, 216,
                  230, 237, 252
    4    8 O      13, 14, 36, 37, 75, 76, 98, 99, 161, 162, 184, 185, 222,
                  223, 245, 246
    5    1 H      44-62, 106-124, 192-209, 253-270

           -------------------------------------------------
          |                 I P E A - x T B                 |
           -------------------------------------------------

        Reference                      10.1039/c7sc00601b
      * Hamiltonian:
        H0-scaling (s, p, d)           2.150000    2.300000    2.000000
        zeta-weighting                 0.000000
      * Dispersion:
        s8                             2.400000
        a1                             0.630000
        a2                             5.000000
        s9                             0.000000
      * Repulsion:
        kExp                           1.500000
        rExp                           1.000000
      * Coulomb:
        alpha                          1.000000
        third order                    atomic
        anisotropic                    false
      * Halogen bond correction:
        rad-scale                      1.300000
        damping                        0.440000


          ...................................................
          :                      SETUP                      :
          :.................................................:
          :  # basis functions                1124          :
          :  # atomic orbitals                1124          :
          :  # shells                          732          :
          :  # electrons                       898          :
          :  # halogen bonds                     0          :
          :  max. iterations                   250          :
          :  Hamiltonian                  GFN1-xTB          :
          :  restarted?                      false          :
          :  GBSA solvation                  false          :
          :  PC potential                    false          :
          :  electronic temp.          300.0000000     K    :
          :  accuracy                    1.0000000          :
          :  -> integral cutoff          0.2500000E+02      :
          :  -> integral neglect         0.1000000E-07      :
          :  -> SCF convergence          0.1000000E-05 Eh   :
          :  -> wf. convergence          0.2000000E-04 e    :
          :  Broyden damping             0.4000000          :
          ...................................................

 iter      E             dE          RMSdq      gap      omega  full diag
   1   -572.6068391 -0.572607E+03  0.103E+01    0.79       0.0  T
   2   -573.1161521 -0.509313E+00  0.657E+00    0.51       1.0  T
   3   -568.3428647  0.477329E+01  0.474E+00    0.96       1.0  T
   4   -575.2351603 -0.689230E+01  0.158E+00    0.48       1.0  T
   5   -576.7299232 -0.149476E+01  0.482E-01    0.57       1.0  T
   6   -576.8495642 -0.119641E+00  0.201E-01    0.44       1.0  T
   7   -576.8668297 -0.172655E-01  0.103E-01    0.46       1.0  T
   8   -576.8710617 -0.423203E-02  0.515E-02    0.43       1.0  T
   9   -576.8714539 -0.392149E-03  0.456E-02    0.46       1.0  T
  10   -576.8725031 -0.104916E-02  0.204E-02    0.44       1.0  T
  11   -576.8727723 -0.269278E-03  0.841E-03    0.44       1.0  T
  12   -576.8728149 -0.425675E-04  0.353E-03    0.44       1.7  T
  13   -576.8728215 -0.655348E-05  0.153E-03    0.44       4.0  T
  14   -576.8728226 -0.115128E-05  0.573E-04    0.44      10.6  T
  15   -576.8728227 -0.129401E-06  0.315E-04    0.44      19.3  T
  16   -576.8728228 -0.634988E-07  0.104E-04    0.44      58.5  T
  17   -576.8728228 -0.516172E-08  0.437E-05    0.44     139.4  T

   *** convergence criteria satisfied after 17 iterations ***

         #    Occupation            Energy/Eh            Energy/eV
      -------------------------------------------------------------
         1        2.0000           -1.0683297             -29.0707
       ...           ...                  ...                  ...
       443        2.0000           -0.3978085             -10.8249
       444        2.0000           -0.3935756             -10.7097
       445        2.0000           -0.3906069             -10.6290
       446        2.0000           -0.3876068             -10.5473
       447        2.0000           -0.3835087             -10.4358
       448        2.0000           -0.3710913             -10.0979
       449        1.9996           -0.3591254              -9.7723 (HOMO)
       450        0.0004           -0.3428952              -9.3307 (LUMO)
       451                         -0.3249052              -8.8411
       452                         -0.3218369              -8.7576
       453                         -0.3191439              -8.6843
       454                         -0.3154113              -8.5828
       ...                                ...                  ...
      1124                        478.9927035           13034.0549
      -------------------------------------------------------------
                  HL-Gap            0.0162302 Eh            0.4416 eV
             Fermi-level           -0.3510103 Eh           -9.5515 eV

 SCC (total)                   0 d,  0 h,  0 min, 10.643 sec
 SCC setup                      ...        0 min,  0.009 sec (  0.082%)
 Dispersion                     ...        0 min,  0.012 sec (  0.109%)
 classical contributions        ...        0 min,  0.004 sec (  0.034%)
 integral evaluation            ...        0 min,  0.766 sec (  7.196%)
 iterations                     ...        0 min,  8.154 sec ( 76.617%)
 molecular gradient             ...        0 min,  1.582 sec ( 14.867%)
 printout                       ...        0 min,  0.116 sec (  1.094%)

         :::::::::::::::::::::::::::::::::::::::::::::::::::::
         ::                     SUMMARY                     ::
         :::::::::::::::::::::::::::::::::::::::::::::::::::::
         :: total energy            -566.161344066560 Eh    ::
         :: gradient norm              0.109160843091 Eh/a0 ::
         :: HOMO-LUMO gap              0.441646290856 eV    ::
         ::.................................................::
         :: SCC energy              -576.872822808450 Eh    ::
         :: -> electrostatic           0.616931294765 Eh    ::
         :: repulsion energy          10.954406284564 Eh    ::
         :: dispersion energy         -0.242927542674 Eh    ::
         :: halogen bond corr.         0.000000000000 Eh    ::
         :: add. restraining           0.000000000000 Eh    ::
         :: total charge               0.000000001319 e     ::
         :::::::::::::::::::::::::::::::::::::::::::::::::::::

           ------------------------------------------------- 
          |        vertical delta SCC IP calculation        |
           ------------------------------------------------- 
   1   -576.4487432 -0.576449E+03  0.145E-01    0.44       0.0  T
   2   -576.3586438  0.900994E-01  0.298E-01    0.19       1.0  T
   3   -576.4743493 -0.115706E+00  0.842E-02    0.56       1.0  T
   4   -576.4785317 -0.418233E-02  0.565E-02    0.49       1.0  T
   5   -576.4810212 -0.248952E-02  0.331E-02    0.49       1.0  T
   6   -576.4813690 -0.347773E-03  0.192E-02    0.49       1.0  T
   7   -576.4807173  0.651712E-03  0.269E-02    0.50       1.0  T
   8   -576.4815105 -0.793293E-03  0.126E-02    0.49       1.0  T
   9   -576.4817054 -0.194890E-03  0.387E-03    0.49       1.6  T
  10   -576.4817088 -0.331974E-05  0.278E-03    0.49       2.2  T
  11   -576.4817095 -0.780376E-06  0.210E-03    0.50       2.9  T
  12   -576.4817176 -0.807124E-05  0.856E-04    0.50       7.1  T
  13   -576.4817186 -0.103635E-05  0.405E-04    0.49      15.0  T
  14   -576.4817189 -0.215963E-06  0.169E-04    0.49      36.0  T
  15   -576.4817189 -0.235418E-07  0.724E-05    0.49      84.1  T
     SCC iter.                  ...        0 min,  7.147 sec
     gradient                   ...        0 min,  1.578 sec
------------------------------------------------------------------------
empirical IP shift (eV):    4.8455
delta SCC IP (eV):    5.7970
------------------------------------------------------------------------
           ------------------------------------------------- 
          |        vertical delta SCC EA calculation        |
           ------------------------------------------------- 
   1   -577.1184708 -0.577118E+03  0.211E-01    0.75       0.0  T
   2   -576.9511996  0.167271E+00  0.375E-01    0.14       1.0  T
   3   -577.1606393 -0.209440E+00  0.137E-01    0.15       1.0  T
   4   -577.1814771 -0.208378E-01  0.736E-02    0.05       1.0  T
   5   -577.1827839 -0.130681E-02  0.465E-02    0.03       1.0  T
   6   -577.1764769  0.630703E-02  0.706E-02    0.04       1.0  T
   7   -577.1817725 -0.529563E-02  0.424E-02    0.03       1.0  T
   8   -577.1831741 -0.140158E-02  0.212E-02    0.03       1.0  T
   9   -577.1836601 -0.485947E-03  0.124E-02    0.04       1.0  T
  10   -577.1832211  0.438979E-03  0.171E-02    0.03       1.0  T
  11   -577.1836714 -0.450322E-03  0.918E-03    0.05       1.0  T
  12   -577.1838423 -0.170894E-03  0.271E-03    0.04       2.2  T
  13   -577.1838538 -0.115044E-04  0.939E-04    0.04       6.5  T
  14   -577.1838544 -0.567798E-06  0.390E-04    0.04      15.6  T
  15   -577.1838546 -0.194624E-06  0.202E-04    0.04      30.2  T
  16   -577.1838545  0.327813E-07  0.179E-04    0.04      34.0  T
  17   -577.1838546 -0.321320E-07  0.110E-04    0.04      55.1  T
     SCC iter.                  ...        0 min,  8.103 sec
     gradient                   ...        0 min,  1.593 sec
------------------------------------------------------------------------
empirical EA shift (eV):    4.8455
delta SCC EA (eV):    3.6181
------------------------------------------------------------------------
           -------------------------------------------------
          |                Property Printout                |
           -------------------------------------------------

    * Orbital Energies and Occupations

         #    Occupation            Energy/Eh            Energy/eV
      -------------------------------------------------------------
         1        2.0000           -1.0365983             -28.2073
       ...           ...                  ...                  ...
       438        2.0000           -0.3647570              -9.9255
       439        2.0000           -0.3624782              -9.8635
       440        2.0000           -0.3612154              -9.8292
       441        2.0000           -0.3609450              -9.8218
       442        2.0000           -0.3553435              -9.6694
       443        2.0000           -0.3531417              -9.6095
       444        2.0000           -0.3506656              -9.5421
       445        2.0000           -0.3462903              -9.4230
       446        2.0000           -0.3421613              -9.3107
       447        2.0000           -0.3399712              -9.2511
       448        2.0000           -0.3269098              -8.8957
       449        2.0000           -0.3051973              -8.3048
       450        0.6591           -0.2857839              -7.7766 (HOMO)
       451        0.3081           -0.2843891              -7.7386 (LUMO)
       452        0.0297           -0.2818452              -7.6694
       453        0.0016           -0.2790509              -7.5934
       454        0.0012           -0.2787798              -7.5860
       455        0.0004           -0.2777359              -7.5576
       456                         -0.2542449              -6.9184
       457                         -0.2489684              -6.7748
       458                         -0.2450854              -6.6691
       459                         -0.2445454              -6.6544
       460                         -0.2444721              -6.6524
       461                         -0.2436067              -6.6289
       ...                                ...                  ...
      1124                        479.0321447           13035.1281
      -------------------------------------------------------------
                  HL-Gap            0.0013948 Eh            0.0380 eV
             Fermi-level           -0.2903768 Eh           -7.9016 eV

  Mulliken/CM5 charges         n(s)   n(p)   n(d)
     1Zn    0.36971  0.69510   0.762  0.869  0.000
     2C    -0.02310 -0.06424   1.089  2.934  0.000
     3C     0.05866  0.12035   1.119  2.822  0.000
     4C    -0.03604 -0.08210   1.090  2.946  0.000
     5C    -0.03376 -0.07941   1.084  2.950  0.000
     6C     0.05922  0.12474   1.112  2.829  0.000
     7N    -0.23590 -0.48011   1.350  3.886  0.000
     8C     0.00963  0.01504   1.093  2.897  0.000
     9C     0.01141  0.00286   1.089  2.900  0.000
    10C    -0.00830 -0.05745   1.082  2.927  0.000
    11C     0.00752  0.00401   1.088  2.904  0.000
    12C     0.23413  0.28908   1.195  2.571  0.000
    13O    -0.28007 -0.47667   1.680  4.600  0.000
    14O    -0.32859 -0.37843   1.629  4.700  0.000
    15C    -0.01632 -0.06799   1.087  2.929  0.000
    16C    -0.02250 -0.07813   1.087  2.936  0.000
    17C    -0.01393 -0.06730   1.086  2.928  0.000
    18C     0.05767  0.12232   1.109  2.833  0.000
    19C    -0.03487 -0.08053   1.083  2.952  0.000
    20C    -0.03564 -0.08081   1.088  2.948  0.000
    21N    -0.23401 -0.47699   1.350  3.884  0.000
    22C     0.06342  0.12996   1.123  2.813  0.000
    23C     0.01575  0.02266   1.084  2.900  0.000
    24C     0.06357  0.13012   1.123  2.813  0.000
    25C    -0.03556 -0.08073   1.088  2.948  0.000
    26C    -0.03486 -0.08054   1.083  2.952  0.000
    27C     0.05739  0.12199   1.109  2.834  0.000
    28N    -0.23402 -0.47697   1.350  3.884  0.000
    29C     0.00914  0.01452   1.093  2.898  0.000
    30C     0.01057  0.00197   1.088  2.902  0.000
    31C    -0.01352 -0.06692   1.085  2.928  0.000
    32C    -0.02138 -0.07698   1.087  2.934  0.000
    33C    -0.01411 -0.06574   1.090  2.924  0.000
    34C     0.00728  0.00377   1.088  2.905  0.000
    35C     0.23396  0.28889   1.195  2.571  0.000
    36O    -0.27865 -0.47538   1.680  4.598  0.000
    37O    -0.33049 -0.38023   1.628  4.702  0.000
    38C    -0.01067 -0.05988   1.079  2.932  0.000
    39C     0.05853  0.12405   1.112  2.830  0.000
    40C    -0.03468 -0.08035   1.084  2.951  0.000
    41C    -0.03662 -0.08268   1.090  2.947  0.000
    42C     0.05837  0.12007   1.119  2.822  0.000
    43N    -0.23624 -0.48024   1.350  3.887  0.000
    44H     0.02852  0.08737   0.971  0.000  0.000
    45H     0.03477  0.09128   0.965  0.000  0.000
    46H     0.02796  0.08674   0.972  0.000  0.000
    47H     0.03817  0.10064   0.962  0.000  0.000
    48H     0.24303  0.41883   0.757  0.000  0.000
    49H     0.04667  0.10790   0.953  0.000  0.000
    50H     0.03754  0.09347   0.962  0.000  0.000
    51H     0.02879  0.08663   0.971  0.000  0.000
    52H     0.02669  0.08549   0.973  0.000  0.000
    53H     0.03029  0.08823   0.970  0.000  0.000
    54H     0.03105  0.08905   0.969  0.000  0.000
    55H     0.02708  0.08589   0.973  0.000  0.000
    56H     0.02946  0.08735   0.971  0.000  0.000
    57H     0.03863  0.09455   0.961  0.000  0.000
    58H     0.04576  0.10623   0.954  0.000  0.000
    59H     0.24212  0.41796   0.758  0.000  0.000
    60H     0.03866  0.10198   0.961  0.000  0.000
    61H     0.02826  0.08709   0.972  0.000  0.000
    62H     0.03475  0.09126   0.965  0.000  0.000
    63Zn    0.37039  0.69585   0.761  0.868  0.000
    64C    -0.02198 -0.06311   1.090  2.932  0.000
    65C     0.05891  0.12059   1.119  2.822  0.000
    66C    -0.03539 -0.08146   1.090  2.945  0.000
    67C    -0.03331 -0.07897   1.084  2.949  0.000
    68C     0.05991  0.12545   1.112  2.828  0.000
    69N    -0.23533 -0.47966   1.350  3.886  0.000
    70C     0.00982  0.01524   1.093  2.897  0.000
    71C     0.01131  0.00276   1.088  2.900  0.000
    72C    -0.00823 -0.05738   1.082  2.927  0.000
    73C     0.00772  0.00421   1.088  2.904  0.000
    74C     0.23426  0.28920   1.195  2.571  0.000
    75O    -0.27991 -0.47646   1.680  4.600  0.000
    76O    -0.32829 -0.37816   1.629  4.700  0.000
    77C    -0.01615 -0.06781   1.087  2.929  0.000
    78C    -0.02241 -0.07804   1.087  2.936  0.000
    79C    -0.01401 -0.06739   1.085  2.929  0.000
    80C     0.05856  0.12322   1.110  2.832  0.000
    81C    -0.03426 -0.07990   1.083  2.951  0.000
    82C    -0.03447 -0.07963   1.089  2.946  0.000
    83N    -0.23353 -0.47633   1.350  3.883  0.000
    84C     0.06369  0.13024   1.123  2.813  0.000
    85C     0.01800  0.02491   1.086  2.896  0.000
    86C     0.06385  0.13039   1.123  2.813  0.000
    87C    -0.03442 -0.07958   1.088  2.946  0.000
    88C    -0.03424 -0.07991   1.083  2.951  0.000
    89C     0.05821  0.12281   1.110  2.832  0.000
    90N    -0.23352 -0.47645   1.350  3.883  0.000
    91C     0.00933  0.01471   1.093  2.897  0.000
    92C     0.01044  0.00184   1.088  2.902  0.000
    93C    -0.01355 -0.06693   1.085  2.928  0.000
    94C    -0.02121 -0.07680   1.087  2.934  0.000
    95C    -0.01390 -0.06553   1.091  2.923  0.000
    96C     0.00739  0.00388   1.088  2.904  0.000
    97C     0.23406  0.28900   1.195  2.571  0.000
    98O    -0.27863 -0.47536   1.680  4.598  0.000
    99O    -0.33013 -0.37986   1.628  4.702  0.000
   100C    -0.01074 -0.05993   1.079  2.932  0.000
   101C     0.05918  0.12470   1.112  2.829  0.000
   102C    -0.03425 -0.07991   1.084  2.950  0.000
   103C    -0.03601 -0.08207   1.090  2.946  0.000
   104C     0.05862  0.12033   1.119  2.822  0.000
   105N    -0.23567 -0.47982   1.350  3.886  0.000
   106H     0.02941  0.08826   0.971  0.000  0.000
   107H     0.03548  0.09200   0.965  0.000  0.000
   108H     0.02852  0.08735   0.971  0.000  0.000
   109H     0.03847  0.10101   0.962  0.000  0.000
   110H     0.24332  0.41912   0.757  0.000  0.000
   111H     0.04698  0.10818   0.953  0.000  0.000
   112H     0.03780  0.09373   0.962  0.000  0.000
   113H     0.02899  0.08678   0.971  0.000  0.000
   114H     0.02761  0.08638   0.972  0.000  0.000
   115H     0.03191  0.08985   0.968  0.000  0.000
   116H     0.03195  0.08993   0.968  0.000  0.000
   117H     0.02795  0.08672   0.972  0.000  0.000
   118H     0.02985  0.08770   0.970  0.000  0.000
   119H     0.03907  0.09500   0.961  0.000  0.000
   120H     0.04618  0.10664   0.954  0.000  0.000
   121H     0.24227  0.41810   0.758  0.000  0.000
   122H     0.03878  0.10211   0.961  0.000  0.000
   123H     0.02888  0.08772   0.971  0.000  0.000
   124H     0.03546  0.09196   0.965  0.000  0.000
   125C    -0.01637 -0.01793   1.094  2.922  0.000
   126C    -0.01979 -0.02051   1.062  2.958  0.000
   127C    -0.01279 -0.01288   1.076  2.936  0.000
   128C    -0.01405 -0.01409   1.074  2.940  0.000
   129C    -0.01336 -0.01359   1.073  2.940  0.000
   130C    -0.01922 -0.01972   1.093  2.926  0.000
   131C     0.01516  0.01471   1.146  2.839  0.000
   132C    -0.05142 -0.04896   1.336  2.715  0.000
   133C     0.02316  0.02583   1.079  2.898  0.000
   134C    -0.02039 -0.02028   1.070  2.951  0.000
   135C    -0.01181 -0.01181   1.078  2.934  0.000
   136C    -0.01953 -0.01953   1.070  2.949  0.000
   137C    -0.00895 -0.00896   1.078  2.930  0.000
   138C    -0.02295 -0.02302   1.064  2.959  0.000
   139C    -0.00833 -0.00838   1.087  2.921  0.000
   140C     0.03583  0.04057   1.126  2.838  0.000
   141C    -0.04814 -0.04579   1.335  2.714  0.000
   142C     0.01359  0.01303   1.147  2.840  0.000
   143C    -0.01502 -0.01566   1.097  2.918  0.000
   144C    -0.01426 -0.01453   1.072  2.943  0.000
   145C    -0.01101 -0.01106   1.075  2.936  0.000
   146C    -0.01371 -0.01380   1.075  2.939  0.000
   147C    -0.01744 -0.01816   1.063  2.954  0.000
   148C    -0.01693 -0.01849   1.093  2.924  0.000
   149Zn    0.37849  0.67909   0.792  0.829  0.000
   150C     0.02757  0.03364   1.161  2.811  0.000
   151C     0.06241  0.13094   1.127  2.811  0.000
   152C    -0.03992 -0.08497   1.080  2.960  0.000
   153C    -0.03246 -0.07796   1.083  2.950  0.000
   154C     0.04936  0.11230   1.098  2.853  0.000
   155N    -0.22948 -0.46654   1.347  3.882  0.000
   156C     0.02154  0.02704   1.106  2.873  0.000
   157C     0.01239  0.00390   1.090  2.898  0.000
   158C    -0.00758 -0.05663   1.083  2.924  0.000
   159C     0.00791  0.00441   1.088  2.904  0.000
   160C     0.23441  0.28939   1.195  2.571  0.000
   161O    -0.28008 -0.47663   1.680  4.600  0.000
   162O    -0.32785 -0.37771   1.628  4.699  0.000
   163C    -0.01587 -0.06754   1.087  2.929  0.000
   164C    -0.02213 -0.07777   1.086  2.936  0.000
   165C    -0.01284 -0.06627   1.085  2.928  0.000
   166C     0.04714  0.11080   1.096  2.857  0.000
   167C    -0.03725 -0.08266   1.083  2.955  0.000
   168C    -0.04452 -0.08956   1.083  2.962  0.000
   169N    -0.23175 -0.46441   1.353  3.879  0.000
   170C     0.06561  0.13365   1.113  2.821  0.000
   171C     0.01328  0.02071   1.093  2.894  0.000
   172C     0.07006  0.12794   1.122  2.808  0.000
   173C    -0.02197 -0.06784   1.097  2.924  0.000
   174C    -0.03659 -0.08229   1.079  2.957  0.000
   175C     0.07225  0.14086   1.131  2.797  0.000
   176N    -0.24544 -0.47907   1.347  3.899  0.000
   177C    -0.02741 -0.02192   1.052  2.975  0.000
   178C     0.00818 -0.00039   1.087  2.905  0.000
   179C    -0.01677 -0.07007   1.087  2.930  0.000
   180C    -0.02331 -0.07888   1.088  2.935  0.000
   181C    -0.01666 -0.06830   1.090  2.927  0.000
   182C     0.00559  0.00206   1.088  2.906  0.000
   183C     0.23298  0.28778   1.196  2.571  0.000
   184O    -0.28011 -0.47687   1.681  4.599  0.000
   185O    -0.33246 -0.38216   1.628  4.704  0.000
   186C    -0.01349 -0.06279   1.077  2.937  0.000
   187C     0.07331  0.14093   1.131  2.796  0.000
   188C    -0.03173 -0.07747   1.079  2.952  0.000
   189C    -0.02119 -0.06722   1.121  2.901  0.000
   190C     0.07737  0.13478   1.189  2.734  0.000
   191N    -0.25824 -0.49809   1.348  3.910  0.000
   192H     0.02940  0.08700   0.971  0.000  0.000
   193H     0.02763  0.08642   0.972  0.000  0.000
   194H     0.03912  0.10159   0.961  0.000  0.000
   195H     0.24292  0.41871   0.757  0.000  0.000
   196H     0.04665  0.10785   0.953  0.000  0.000
   197H     0.03776  0.09370   0.962  0.000  0.000
   198H     0.02923  0.08710   0.971  0.000  0.000
   199H     0.02459  0.08321   0.975  0.000  0.000
   200H     0.03133  0.08786   0.969  0.000  0.000
   201H     0.04119  0.09812   0.959  0.000  0.000
   202H     0.02981  0.08861   0.970  0.000  0.000
   203H     0.02432  0.08197   0.976  0.000  0.000
   204H     0.03526  0.09116   0.965  0.000  0.000
   205H     0.04310  0.10353   0.957  0.000  0.000
   206H     0.24023  0.41616   0.760  0.000  0.000
   207H     0.03624  0.09955   0.964  0.000  0.000
   208H     0.03044  0.08933   0.970  0.000  0.000
   209H     0.02931  0.08718   0.971  0.000  0.000
   210Zn    0.36798  0.69520   0.764  0.868  0.000
   211C    -0.07925 -0.07449   1.262  2.817  0.000
   212C     0.07722  0.14015   1.168  2.755  0.000
   213C    -0.02995 -0.07547   1.108  2.922  0.000
   214C    -0.03532 -0.08096   1.079  2.956  0.000
   215C     0.06207  0.12957   1.115  2.823  0.000
   216N    -0.23747 -0.47259   1.351  3.886  0.000
   217C     0.00921  0.01472   1.092  2.899  0.000
   218C     0.01253  0.00396   1.090  2.898  0.000
   219C    -0.00769 -0.05690   1.081  2.926  0.000
   220C     0.00701  0.00349   1.088  2.905  0.000
   221C     0.23394  0.28897   1.195  2.571  0.000
   222O    -0.28115 -0.47774   1.681  4.600  0.000
   223O    -0.32872 -0.37860   1.629  4.700  0.000
   224C    -0.01754 -0.06921   1.086  2.932  0.000
   225C    -0.02322 -0.07885   1.086  2.937  0.000
   226C    -0.01355 -0.06684   1.085  2.928  0.000
   227C     0.05045  0.11290   1.102  2.848  0.000
   228C    -0.03708 -0.08271   1.080  2.957  0.000
   229C    -0.04375 -0.08881   1.078  2.966  0.000
   230N    -0.23014 -0.47046   1.348  3.883  0.000
   231C     0.06027  0.12970   1.132  2.808  0.000
   232C     0.02329  0.02941   1.168  2.809  0.000
   233C     0.07860  0.13586   1.192  2.730  0.000
   234C    -0.02337 -0.06952   1.123  2.901  0.000
   235C    -0.03266 -0.07860   1.080  2.953  0.000
   236C     0.07102  0.13784   1.130  2.799  0.000
   237N    -0.26305 -0.50701   1.344  3.919  0.000
   238C    -0.03217 -0.02670   1.045  2.987  0.000
   239C     0.00909  0.00044   1.088  2.903  0.000
   240C    -0.01667 -0.07004   1.087  2.930  0.000
   241C    -0.02425 -0.07984   1.087  2.937  0.000
   242C    -0.01803 -0.06967   1.089  2.929  0.000
   243C     0.00468  0.00113   1.088  2.908  0.000
   244C     0.23235  0.28711   1.197  2.571  0.000
   245O    -0.28043 -0.47716   1.681  4.599  0.000
   246O    -0.33468 -0.38439   1.628  4.706  0.000
   247C    -0.01319 -0.06262   1.077  2.936  0.000
   248C     0.07344  0.14363   1.130  2.796  0.000
   249C    -0.03977 -0.08536   1.078  2.962  0.000
   250C    -0.02636 -0.07217   1.116  2.911  0.000
   251C     0.06421  0.12048   1.153  2.783  0.000
   252N    -0.24291 -0.49089   1.353  3.890  0.000
   253H     0.02136  0.07869   0.979  0.000  0.000
   254H     0.02464  0.08365   0.975  0.000  0.000
   255H     0.03699  0.09946   0.963  0.000  0.000
   256H     0.24124  0.41698   0.759  0.000  0.000
   257H     0.04407  0.10530   0.956  0.000  0.000
   258H     0.03499  0.09093   0.965  0.000  0.000
   259H     0.02720  0.08504   0.973  0.000  0.000
   260H     0.02242  0.08106   0.978  0.000  0.000
   261H     0.02303  0.08088   0.977  0.000  0.000
   262H     0.02502  0.08298   0.975  0.000  0.000
   263H     0.02848  0.08766   0.972  0.000  0.000
   264H     0.02320  0.08088   0.977  0.000  0.000
   265H     0.03263  0.08853   0.967  0.000  0.000
   266H     0.04045  0.10089   0.960  0.000  0.000
   267H     0.23867  0.41463   0.761  0.000  0.000
   268H     0.03531  0.09858   0.965  0.000  0.000
   269H     0.02185  0.08076   0.978  0.000  0.000
   270H     0.02059  0.07782   0.979  0.000  0.000

Wiberg/Mayer (AO) data.
largest (>0.10) Wiberg bond orders for each atom

 ---------------------------------------------------------------------------
     #   Z sym  total        # sym  WBO       # sym  WBO       # sym  WBO
 ---------------------------------------------------------------------------
     1  30 Zn   2.419 --     7 N    0.567    43 N    0.566    21 N    0.559
                            28 N    0.559
     2   6 C    3.804 --     3 C    1.389    42 C    1.388    44 H    0.997
     3   6 C    3.946 --     2 C    1.389     7 N    1.283     4 C    1.197
     4   6 C    3.850 --     5 C    1.647     3 C    1.197    45 H    0.993
     5   6 C    3.834 --     4 C    1.647     6 C    1.205    46 H    0.998
     6   6 C    3.915 --     8 C    1.365     7 N    1.281     5 C    1.205
     7   7 N    3.006 --     3 C    1.283     6 C    1.281     1 Zn   0.567
     8   6 C    3.835 --    18 C    1.367     6 C    1.365     9 C    1.048
     9   6 C    3.898 --    10 C    1.441    17 C    1.419     8 C    1.048
    10   6 C    3.850 --     9 C    1.441    11 C    1.407    47 H    0.995
    11   6 C    3.908 --    10 C    1.407    15 C    1.401    12 C    1.035
    12   6 C    4.097 --    14 O    1.820    13 O    1.211    11 C    1.035
    13   8 O    2.366 --    12 C    1.211    48 H    0.943    14 O    0.184
    14   8 O    2.033 --    12 C    1.820    13 O    0.184
    15   6 C    3.887 --    16 C    1.454    11 C    1.401    49 H    0.987
    16   6 C    3.908 --    15 C    1.454    17 C    1.445    50 H    0.981
    17   6 C    3.869 --    16 C    1.445     9 C    1.419    51 H    0.989
    18   6 C    3.904 --     8 C    1.367    21 N    1.269    19 C    1.213
    19   6 C    3.827 --    20 C    1.630    18 C    1.213    52 H    0.998
    20   6 C    3.840 --    19 C    1.630    22 C    1.222    53 H    0.998
    21   7 N    3.011 --    22 C    1.310    18 C    1.269     1 Zn   0.559
    22   6 C    3.920 --    21 N    1.310    23 C    1.296    20 C    1.222
    23   6 C    3.827 --    22 C    1.296    24 C    1.294   125 C    1.219
    24   6 C    3.920 --    28 N    1.310    23 C    1.294    25 C    1.222
    25   6 C    3.839 --    26 C    1.629    24 C    1.222    54 H    0.998
    26   6 C    3.827 --    25 C    1.629    27 C    1.213    55 H    0.998
    27   6 C    3.905 --    29 C    1.367    28 N    1.269    26 C    1.213
    28   7 N    3.011 --    24 C    1.310    27 C    1.269     1 Zn   0.559
    29   6 C    3.835 --    27 C    1.367    39 C    1.364    30 C    1.048
    30   6 C    3.898 --    38 C    1.438    31 C    1.420    29 C    1.048
    31   6 C    3.868 --    32 C    1.444    30 C    1.420    56 H    0.989
    32   6 C    3.907 --    33 C    1.456    31 C    1.444    57 H    0.981
    33   6 C    3.891 --    32 C    1.456    34 C    1.402    58 H    0.986
    34   6 C    3.909 --    38 C    1.407    33 C    1.402    35 C    1.036
    35   6 C    4.098 --    37 O    1.818    36 O    1.212    34 C    1.036
    36   8 O    2.368 --    35 C    1.212    59 H    0.943    37 O    0.183
    37   8 O    2.030 --    35 C    1.818    36 O    0.183
    38   6 C    3.847 --    30 C    1.438    34 C    1.407    60 H    0.996
    39   6 C    3.915 --    29 C    1.364    43 N    1.281    40 C    1.205
    40   6 C    3.833 --    41 C    1.646    39 C    1.205    61 H    0.998
    41   6 C    3.849 --    40 C    1.646    42 C    1.198    62 H    0.993
    42   6 C    3.946 --     2 C    1.388    43 N    1.284    41 C    1.198
    43   7 N    3.005 --    42 C    1.284    39 C    1.281     1 Zn   0.566
    44   1 H    1.031 --     2 C    0.997
    45   1 H    1.020 --     4 C    0.993
    46   1 H    1.031 --     5 C    0.998
    47   1 H    1.049 --    10 C    0.995
    48   1 H    0.979 --    13 O    0.943
    49   1 H    1.016 --    15 C    0.987
    50   1 H    1.029 --    16 C    0.981
    51   1 H    1.052 --    17 C    0.989
    52   1 H    1.033 --    19 C    0.998
    53   1 H    1.032 --    20 C    0.998
    54   1 H    1.030 --    25 C    0.998
    55   1 H    1.033 --    26 C    0.998
    56   1 H    1.052 --    31 C    0.989
    57   1 H    1.029 --    32 C    0.981
    58   1 H    1.025 --    33 C    0.986
    59   1 H    0.980 --    36 O    0.943
    60   1 H    1.040 --    38 C    0.996
    61   1 H    1.030 --    40 C    0.998
    62   1 H    1.019 --    41 C    0.993
    63  30 Zn   2.419 --    69 N    0.567   105 N    0.565    90 N    0.559
                            83 N    0.558
    64   6 C    3.810 --    65 C    1.390   104 C    1.389   106 H    0.997
    65   6 C    3.947 --    64 C    1.390    69 N    1.283    66 C    1.197
    66   6 C    3.852 --    67 C    1.648    65 C    1.197   107 H    0.993
    67   6 C    3.834 --    66 C    1.648    68 C    1.204   108 H    0.998
    68   6 C    3.918 --    70 C    1.365    69 N    1.283    67 C    1.204
    69   7 N    3.008 --    68 C    1.283    65 C    1.283    63 Zn   0.567
    70   6 C    3.835 --    80 C    1.367    68 C    1.365    71 C    1.048
    71   6 C    3.898 --    72 C    1.440    79 C    1.420    70 C    1.048
    72   6 C    3.850 --    71 C    1.440    73 C    1.408   109 H    0.995
    73   6 C    3.908 --    72 C    1.408    77 C    1.401    74 C    1.035
    74   6 C    4.097 --    76 O    1.820    75 O    1.211    73 C    1.035
    75   8 O    2.366 --    74 C    1.211   110 H    0.943    76 O    0.184
    76   8 O    2.033 --    74 C    1.820    75 O    0.184
    77   6 C    3.887 --    78 C    1.454    73 C    1.401   111 H    0.987
    78   6 C    3.908 --    77 C    1.454    79 C    1.445   112 H    0.981
    79   6 C    3.868 --    78 C    1.445    71 C    1.420   113 H    0.989
    80   6 C    3.907 --    70 C    1.367    83 N    1.271    81 C    1.212
    81   6 C    3.829 --    82 C    1.632    80 C    1.212   114 H    0.998
    82   6 C    3.843 --    81 C    1.632    84 C    1.221   115 H    0.998
    83   7 N    3.013 --    84 C    1.308    80 C    1.271    63 Zn   0.558
    84   6 C    3.922 --    83 N    1.308    85 C    1.300    82 C    1.221
    85   6 C    3.837 --    84 C    1.300    86 C    1.298   148 C    1.215
    86   6 C    3.921 --    90 N    1.308    85 C    1.298    87 C    1.221
    87   6 C    3.843 --    88 C    1.632    86 C    1.221   116 H    0.998
    88   6 C    3.829 --    87 C    1.632    89 C    1.212   117 H    0.998
    89   6 C    3.908 --    91 C    1.368    90 N    1.270    88 C    1.212
    90   7 N    3.013 --    86 C    1.308    89 C    1.270    63 Zn   0.559
    91   6 C    3.835 --    89 C    1.368   101 C    1.364    92 C    1.048
    92   6 C    3.898 --   100 C    1.438    93 C    1.421    91 C    1.048
    93   6 C    3.868 --    94 C    1.444    92 C    1.421   118 H    0.989
    94   6 C    3.908 --    95 C    1.456    93 C    1.444   119 H    0.981
    95   6 C    3.892 --    94 C    1.456    96 C    1.402   120 H    0.986
    96   6 C    3.909 --   100 C    1.408    95 C    1.402    97 C    1.036
    97   6 C    4.098 --    99 O    1.818    98 O    1.212    96 C    1.036
    98   8 O    2.368 --    97 C    1.212   121 H    0.943    99 O    0.183
    99   8 O    2.031 --    97 C    1.818    98 O    0.183
   100   6 C    3.847 --    92 C    1.438    96 C    1.408   122 H    0.996
   101   6 C    3.917 --    91 C    1.364   105 N    1.283   102 C    1.205
   102   6 C    3.833 --   103 C    1.647   101 C    1.205   123 H    0.998
   103   6 C    3.851 --   102 C    1.647   104 C    1.198   124 H    0.993
   104   6 C    3.947 --    64 C    1.389   105 N    1.283   103 C    1.198
   105   7 N    3.008 --   104 C    1.283   101 C    1.283    63 Zn   0.565
   106   1 H    1.031 --    64 C    0.997
   107   1 H    1.019 --    66 C    0.993
   108   1 H    1.031 --    67 C    0.998
   109   1 H    1.048 --    72 C    0.995
   110   1 H    0.979 --    75 O    0.943
   111   1 H    1.016 --    77 C    0.987
   112   1 H    1.028 --    78 C    0.981
   113   1 H    1.052 --    79 C    0.989
   114   1 H    1.033 --    81 C    0.998
   115   1 H    1.030 --    82 C    0.998
   116   1 H    1.031 --    87 C    0.998
   117   1 H    1.033 --    88 C    0.998
   118   1 H    1.051 --    93 C    0.989
   119   1 H    1.029 --    94 C    0.981
   120   1 H    1.025 --    95 C    0.986
   121   1 H    0.980 --    98 O    0.943
   122   1 H    1.040 --   100 C    0.996
   123   1 H    1.030 --   102 C    0.998
   124   1 H    1.019 --   103 C    0.993
   125   6 C    3.766 --   126 C    2.474    23 C    1.219   128 C    0.170
   126   6 C    3.811 --   125 C    2.474   127 C    1.354
   127   6 C    3.829 --   128 C    2.370   126 C    1.354   130 C    0.170
   128   6 C    3.833 --   127 C    2.370   129 C    1.364   125 C    0.170
   129   6 C    3.867 --   130 C    2.426   128 C    1.364
   130   6 C    3.801 --   129 C    2.426   131 C    1.269   127 C    0.170
   131   6 C    3.997 --   132 C    1.584   130 C    1.269   150 C    1.119
   132   6 C    3.180 --   131 C    1.584   190 C    0.929   150 C    0.462
   133   6 C    3.847 --   171 C    1.682   134 C    1.343   172 C    0.760
   134   6 C    3.773 --   135 C    2.337   133 C    1.343   137 C    0.161
   135   6 C    3.846 --   134 C    2.337   136 C    1.400   171 C    0.106
   136   6 C    3.824 --   137 C    2.317   135 C    1.400   139 C    0.160
   137   6 C    3.807 --   136 C    2.317   138 C    1.384   134 C    0.161
   138   6 C    3.843 --   139 C    2.379   137 C    1.384
   139   6 C    3.765 --   138 C    2.379   140 C    1.276   136 C    0.160
   140   6 C    3.933 --   139 C    1.276   211 C    1.048   251 C    0.826
                           212 C    0.712
   141   6 C    3.183 --   142 C    1.614   233 C    0.903   232 C    0.464
   142   6 C    3.995 --   141 C    1.614   143 C    1.277   232 C    1.079
   143   6 C    3.804 --   144 C    2.417   142 C    1.277   146 C    0.169
   144   6 C    3.861 --   143 C    2.417   145 C    1.366
   145   6 C    3.833 --   146 C    2.369   144 C    1.366   148 C    0.170
   146   6 C    3.823 --   145 C    2.369   147 C    1.352   143 C    0.169
   147   6 C    3.814 --   148 C    2.477   146 C    1.352
   148   6 C    3.764 --   147 C    2.477    85 C    1.215   145 C    0.170
   149  30 Zn   2.369 --   191 N    0.590   155 N    0.536   176 N    0.527
                           169 N    0.526
   150   6 C    3.837 --   151 C    1.210   131 C    1.119   190 C    0.991
                           132 C    0.462
   151   6 C    3.936 --   155 N    1.358   152 C    1.258   150 C    1.210
   152   6 C    3.849 --   153 C    1.582   151 C    1.258   192 H    0.997
   153   6 C    3.816 --   152 C    1.582   154 C    1.242   193 H    0.998
   154   6 C    3.926 --   156 C    1.376   153 C    1.242   155 N    1.231
   155   7 N    2.995 --   151 C    1.358   154 C    1.231   149 Zn   0.536
   156   6 C    3.823 --   154 C    1.376   166 C    1.344   157 C    1.051
   157   6 C    3.902 --   158 C    1.438   165 C    1.419   156 C    1.051
   158   6 C    3.854 --   157 C    1.438   159 C    1.408   194 H    0.995
   159   6 C    3.909 --   158 C    1.408   163 C    1.401   160 C    1.035
   160   6 C    4.097 --   162 O    1.821   161 O    1.211   159 C    1.035
   161   8 O    2.367 --   160 C    1.211   195 H    0.943   162 O    0.184
   162   8 O    2.034 --   160 C    1.821   161 O    0.184
   163   6 C    3.886 --   164 C    1.454   159 C    1.401   196 H    0.987
   164   6 C    3.907 --   163 C    1.454   165 C    1.445   197 H    0.981
   165   6 C    3.866 --   164 C    1.445   157 C    1.419   198 H    0.989
   166   6 C    3.922 --   156 C    1.344   167 C    1.270   169 N    1.234
   167   6 C    3.807 --   168 C    1.538   166 C    1.270   199 H    0.999
   168   6 C    3.854 --   167 C    1.538   170 C    1.297   200 H    0.992
   169   7 N    2.997 --   170 C    1.352   166 C    1.234   149 Zn   0.526
   170   6 C    3.903 --   169 N    1.352   168 C    1.297   171 C    1.156
   171   6 C    3.785 --   133 C    1.682   170 C    1.156   172 C    0.866
                           135 C    0.106
   172   6 C    3.943 --   173 C    1.126   176 N    1.115   171 C    0.866
                           133 C    0.760
   173   6 C    3.870 --   174 C    1.703   172 C    1.126   201 H    0.990
   174   6 C    3.845 --   173 C    1.703   175 C    1.180   202 H    0.996
   175   6 C    3.958 --   176 N    1.384   177 C    1.307   174 C    1.180
   176   7 N    2.924 --   175 C    1.384   172 C    1.115   149 Zn   0.527
   177   6 C    3.781 --   187 C    1.396   175 C    1.307   178 C    1.041
   178   6 C    3.891 --   186 C    1.440   179 C    1.421   177 C    1.041
   179   6 C    3.874 --   180 C    1.444   178 C    1.421   203 H    0.991
   180   6 C    3.909 --   181 C    1.456   179 C    1.444   204 H    0.982
   181   6 C    3.892 --   180 C    1.456   182 C    1.400   205 H    0.987
   182   6 C    3.909 --   186 C    1.406   181 C    1.400   183 C    1.038
   183   6 C    4.097 --   185 O    1.817   184 O    1.210   182 C    1.038
   184   8 O    2.367 --   183 C    1.210   206 H    0.944   185 O    0.183
   185   8 O    2.029 --   183 C    1.817   184 O    0.183
   186   6 C    3.845 --   178 C    1.440   182 C    1.406   207 H    0.997
   187   6 C    3.963 --   177 C    1.396   191 N    1.347   188 C    1.136
   188   6 C    3.849 --   189 C    1.780   187 C    1.136   208 H    0.995
   189   6 C    3.899 --   188 C    1.780   190 C    1.034   209 H    0.992
   190   6 C    4.105 --   191 N    1.086   189 C    1.034   150 C    0.991
                           132 C    0.929
   191   7 N    2.957 --   187 C    1.347   190 C    1.086   149 Zn   0.590
   192   1 H    1.030 --   152 C    0.997
   193   1 H    1.030 --   153 C    0.998
   194   1 H    1.049 --   158 C    0.995
   195   1 H    0.979 --   161 O    0.943
   196   1 H    1.016 --   163 C    0.987
   197   1 H    1.028 --   164 C    0.981
   198   1 H    1.052 --   165 C    0.989
   199   1 H    1.031 --   167 C    0.999
   200   1 H    1.024 --   168 C    0.992
   201   1 H    1.025 --   173 C    0.990
   202   1 H    1.029 --   174 C    0.996
   203   1 H    1.054 --   179 C    0.991
   204   1 H    1.030 --   180 C    0.982
   205   1 H    1.026 --   181 C    0.987
   206   1 H    0.982 --   184 O    0.944
   207   1 H    1.036 --   186 C    0.997
   208   1 H    1.031 --   188 C    0.995
   209   1 H    1.049 --   189 C    0.992
   210  30 Zn   2.414 --   237 N    0.611   252 N    0.596   230 N    0.534
                           216 N    0.502
   211   6 C    3.128 --   140 C    1.048   251 C    0.929   212 C    0.888
   212   6 C    4.016 --   216 N    1.177   213 C    1.151   211 C    0.888
                           140 C    0.712
   213   6 C    3.893 --   214 C    1.673   212 C    1.151   253 H    0.997
   214   6 C    3.830 --   213 C    1.673   215 C    1.202   254 H    0.998
   215   6 C    3.952 --   216 N    1.348   217 C    1.305   214 C    1.202
   216   7 N    2.927 --   215 C    1.348   212 C    1.177   210 Zn   0.502
   217   6 C    3.740 --   227 C    1.385   215 C    1.305   218 C    1.049
   218   6 C    3.899 --   219 C    1.439   226 C    1.418   217 C    1.049
   219   6 C    3.847 --   218 C    1.439   220 C    1.408   255 H    0.996
   220   6 C    3.907 --   219 C    1.408   224 C    1.400   221 C    1.035
   221   6 C    4.097 --   223 O    1.821   222 O    1.210   220 C    1.035
   222   8 O    2.367 --   221 C    1.210   256 H    0.944   223 O    0.184
   223   8 O    2.034 --   221 C    1.821   222 O    0.184
   224   6 C    3.884 --   225 C    1.453   220 C    1.400   257 H    0.987
   225   6 C    3.908 --   224 C    1.453   226 C    1.445   258 H    0.982
   226   6 C    3.866 --   225 C    1.445   218 C    1.418   259 H    0.989
   227   6 C    3.904 --   217 C    1.385   228 C    1.234   230 N    1.230
   228   6 C    3.784 --   229 C    1.580   227 C    1.234   260 H    0.999
   229   6 C    3.835 --   228 C    1.580   231 C    1.258   261 H    0.998
   230   7 N    2.979 --   231 C    1.364   227 C    1.230   210 Zn   0.534
   231   6 C    3.902 --   230 N    1.364   229 C    1.258   232 C    1.192
   232   6 C    3.814 --   231 C    1.192   142 C    1.079   233 C    1.029
                           141 C    0.464
   233   6 C    4.108 --   237 N    1.085   232 C    1.029   234 C    1.026
                           141 C    0.903
   234   6 C    3.900 --   235 C    1.788   233 C    1.026   262 H    0.993
   235   6 C    3.847 --   234 C    1.788   236 C    1.131   263 H    0.996
   236   6 C    3.958 --   238 C    1.423   237 N    1.330   235 C    1.131
   237   7 N    2.946 --   236 C    1.330   233 C    1.085   210 Zn   0.611
   238   6 C    3.786 --   236 C    1.423   248 C    1.285   239 C    1.039
   239   6 C    3.892 --   247 C    1.441   240 C    1.422   238 C    1.039
   240   6 C    3.875 --   241 C    1.444   239 C    1.422   264 H    0.991
   241   6 C    3.908 --   242 C    1.456   240 C    1.444   265 H    0.983
   242   6 C    3.892 --   241 C    1.456   243 C    1.400   266 H    0.987
   243   6 C    3.908 --   247 C    1.405   242 C    1.400   244 C    1.040
   244   6 C    4.097 --   246 O    1.815   245 O    1.210   243 C    1.040
   245   8 O    2.367 --   244 C    1.210   267 H    0.945   246 O    0.182
   246   8 O    2.027 --   244 C    1.815   245 O    0.182
   247   6 C    3.847 --   239 C    1.441   243 C    1.405   268 H    0.997
   248   6 C    3.960 --   252 N    1.416   238 C    1.285   249 C    1.170
   249   6 C    3.853 --   250 C    1.724   248 C    1.170   269 H    0.998
   250   6 C    3.904 --   249 C    1.724   251 C    1.115   270 H    0.996
   251   6 C    4.016 --   250 C    1.115   252 N    1.071   211 C    0.929
                           140 C    0.826
   252   7 N    2.987 --   248 C    1.416   251 C    1.071   210 Zn   0.596
   253   1 H    1.053 --   213 C    0.997
   254   1 H    1.034 --   214 C    0.998
   255   1 H    1.051 --   219 C    0.996
   256   1 H    0.980 --   222 O    0.944
   257   1 H    1.017 --   224 C    0.987
   258   1 H    1.030 --   225 C    0.982
   259   1 H    1.053 --   226 C    0.989
   260   1 H    1.035 --   228 C    0.999
   261   1 H    1.032 --   229 C    0.998
   262   1 H    1.050 --   234 C    0.993
   263   1 H    1.033 --   235 C    0.996
   264   1 H    1.055 --   240 C    0.991
   265   1 H    1.031 --   241 C    0.983
   266   1 H    1.027 --   242 C    0.987
   267   1 H    0.983 --   245 O    0.945
   268   1 H    1.040 --   247 C    0.997
   269   1 H    1.036 --   249 C    0.998
   270   1 H    1.054 --   250 C    0.996
 ---------------------------------------------------------------------------

Topologies differ in total number of bonds
Writing topology from bond orders to xtbtopo.mol

 dipole moment from electron density (au)
     X       Y       Z   
-128.8672  -4.1400  -2.7418  total (Debye):  327.791


           -------------------------------------------------
          | TOTAL ENERGY             -566.472375820115 Eh   |
          | GRADIENT NORM               0.116650217524 Eh/α |
          | HOMO-LUMO GAP               0.037954096752 eV   |
           -------------------------------------------------
########################################################################
[WARNING] Runtime exception occurred
-1- restart_readRestart: Dimension missmatch in restart file.
########################################################################

------------------------------------------------------------------------
 * finished run on 2022/07/30 at 11:28:58.211     
------------------------------------------------------------------------
 total:
 * wall-time:     0 d,  0 h,  0 min, 31.574 sec
 *  cpu-time:     0 d,  0 h,  0 min, 31.416 sec
 * ratio c/w:     0.995 speedup
 SCF:
 * wall-time:     0 d,  0 h,  0 min, 30.860 sec
 *  cpu-time:     0 d,  0 h,  0 min, 30.720 sec
 * ratio c/w:     0.995 speedup

