270
 energy: -506.698402217853 gnorm: 0.000833034466 xtb: 6.5.1 (b24c23e)
Zn          45.00888081099879        1.62977097888690       -4.19538788897835
C           41.69617193566393        1.61921643189993       -4.99951939529937
C           42.25288935069630        2.85326081634072       -4.68645317297458
C           41.54780244182757        4.10469392330853       -4.70147096078423
C           42.43482202038272        5.06466540420517       -4.33989759676689
C           43.69138123131674        4.40911644170321       -4.08841314558016
N           43.54915134736208        3.07205343372760       -4.31699002318197
C           44.87585752799816        5.04266548554426       -3.69346116268434
C           44.82212920198222        6.51121235617989       -3.48018502719703
C           43.99828225575808        7.05671280363722       -2.49989706703147
C           43.95592565258505        8.43593467396082       -2.29841166963377
C           43.06323601608043        8.95607384887549       -1.23259074618227
O           43.10185404752318       10.29046940620225       -1.10470915829056
O           42.36183523375100        8.26726062894760       -0.53640071461226
C           44.73844183337432        9.28202033800053       -3.08417054048509
C           45.55723460448938        8.74167190443308       -4.06329519981457
C           45.60196442621685        7.36870936025681       -4.26012757947674
C           46.10698201448169        4.41408034657331       -3.47838108466028
C           47.30055186841303        5.06403677062152       -3.01035294968234
C           48.26414367292116        4.11271708382412       -2.91794469380649
N           46.36542342492692        3.08055621846510       -3.64948789081456
C           47.66858538282921        2.87251087810352       -3.32130210267031
C           48.34330311317933        1.63633093608582       -3.36205276927330
C           47.77444624848591        0.39953409328619       -3.72759647637249
C           48.49400405961780       -0.83841448985214       -3.79902752602457
C           47.60543767042766       -1.79286685634787       -4.17532669488271
C           46.32979464443618       -1.14815935380994       -4.32646542024385
N           46.47279274219493        0.18706236873663       -4.05867240687114
C           45.14204262578863       -1.78393293073182       -4.70358472841387
C           45.19734522638083       -3.25320386992377       -4.91134780740977
C           45.54297623332810       -4.10416152548671       -3.85894326985586
C           45.59557798395036       -5.47827999203419       -4.04738928014627
C           45.30524480391157       -6.02066622413740       -5.28799059792922
C           44.95780419558643       -5.18137133751508       -6.34776350424710
C           44.65306786213847       -5.80105151422163       -7.66134080366975
O           44.31435516022709       -4.91395885748717       -8.60887398587941
O           44.69590050697271       -6.98465841200133       -7.88103982933269
C           44.90386645630339       -3.80185289616911       -6.15794569344745
C           43.90457508379821       -1.15738349492498       -4.89665038015002
C           42.67448844626669       -1.82139222426232       -5.23984379257799
C           41.71433074321413       -0.86718084062780       -5.32410669192555
C           42.34222646847546        0.38901551183818       -5.02299196083083
N           43.66648103766897        0.17905132685489       -4.76442073253351
H           40.64035212480118        1.61537750549003       -5.25215455285266
H           40.50801283307337        4.22226557842752       -4.96345837631590
H           42.26067581360032        6.12553139623881       -4.25753777141859
H           43.39302082732564        6.41363957188725       -1.87030272432304
H           42.49642087651745       10.54923344066210       -0.39104973294799
H           44.70327371696995       10.35324319352153       -2.92714245322601
H           46.16595923930238        9.39336280930722       -4.67989171734133
H           46.23679143524531        6.95323614242909       -5.03484471363881
H           47.38448728141484        6.11135801092066       -2.76859530205174
H           49.28749313748588        4.23074914443616       -2.59893288513650
H           49.54645497184294       -0.95355197408941       -3.59426875737872
H           47.79832085859327       -2.83946151286316       -4.34787151304031
H           45.75734941803286       -3.68271383278798       -2.88315475787767
H           45.86266533185726       -6.12567389736916       -3.21990263335430
H           45.34191923868650       -7.09156695881415       -5.45283581432724
H           44.13115422409474       -5.39711572970260       -9.43090857266228
H           44.64842552771244       -3.15187379016509       -6.98648464161737
H           42.56176810286807       -2.88378822712219       -5.38556803720199
H           40.66922163404892       -0.99223193561485       -5.56026022700237
Zn          90.73766875039850        0.61730093386449       -4.03781901861146
C           94.09308660009256        0.11407994957216       -4.36523951723742
C           93.27855680011545       -0.99309695628038       -4.56823700114610
C           93.74292775267601       -2.30588143166615       -4.92083601913913
C           92.64871589714186       -3.10067239898573       -5.02017730315429
C           91.50179783516074       -2.28433603663651       -4.71945418825166
N           91.91732144534089       -1.01138898870199       -4.46103828988207
C           90.17142388869264       -2.72099208432818       -4.71311858048700
C           89.93232611271328       -4.16044870239290       -4.98830814698263
C           90.45229452403032       -5.13499472861960       -4.14114649443102
C           90.22950734669881       -6.48748621898333       -4.39637715401935
C           90.80833884479621       -7.47694806231294       -3.45344931178994
O           90.52973428628214       -8.74932828925082       -3.77284849022524
O           91.46854425084346       -7.19051934568359       -2.48751606803171
C           89.48363334915402       -6.87504431309357       -5.50954724187454
C           88.96598771298864       -5.90688203509194       -6.35559753976012
C           89.18531378452225       -4.56069286279231       -6.09863838846847
C           89.05050671824428       -1.92382942935946       -4.45844711708694
C           87.69360202960399       -2.39365122051356       -4.39551534796028
C           86.91238296625149       -1.32233174732073       -4.10539726679901
N           89.06798071539622       -0.58023319093767       -4.19602316487353
C           87.78309420051684       -0.19001697659966       -3.98129893887034
C           87.35685531872383        1.11859186215697       -3.68031175566406
C           88.19240116960133        2.24354544878652       -3.52924112918705
C           87.72864747425557        3.57332066402492       -3.26043329525071
C           88.82672574320988        4.36600408345125       -3.17029196975643
C           89.97434133424744        3.52464166479476       -3.37196561002193
N           89.55042487221351        2.24263853920452       -3.59982861223236
C           91.30544712076573        3.95444842864448       -3.35425668794883
C           91.55305861828583        5.38757863295014       -3.05365444660783
C           91.17334855730388        5.93057723770069       -1.82414525863390
C           91.40991548189875        7.26803437225285       -1.53776703101251
C           92.02613238667668        8.08057220455417       -2.47461187905395
C           92.40948845501681        7.55034217227552       -3.70752894610943
C           93.06818396938951        8.45282506400864       -4.68458240489967
O           93.40585894690541        7.84735601954925       -5.83288426001477
O           93.29066377889143        9.62024221757814       -4.48867092742287
C           92.17353971406941        6.20723060651337       -3.99409535659057
C           92.42754067551749        3.15082528337008       -3.59109226700377
C           93.79787960326560        3.58643236176843       -3.52441140226437
C           94.57407518681022        2.51154300298692       -3.80980724723287
C           93.68950991490031        1.40433466952713       -4.04352558111094
N           92.39774857932875        1.82240104852675       -3.89849063011537
H           95.16192637050180       -0.04706478476694       -4.46602770749671
H           94.77669521530414       -2.57209171638634       -5.07585397267375
H           92.61509821292371       -4.14583070271935       -5.28290420674214
H           91.02403318834745       -4.85172940704828       -3.26413928540248
H           90.94153214421856       -9.32958960287448       -3.11209493130439
H           89.31345240480854       -7.92625395576993       -5.70807527870616
H           88.38809266836216       -6.20105946781862       -7.22447635513780
H           88.78758717288463       -3.80942437812823       -6.77182813408905
H           87.38172309083089       -3.41546513796602       -4.54063243461573
H           85.84182613690729       -1.29426580994075       -3.97846153856614
H           86.69314215670076        3.85815093373931       -3.16297648836183
H           88.85808775222888        5.42922780715148       -2.99439329981814
H           90.70342429368580        5.29295349871098       -1.08362304351211
H           91.11328700291429        7.67390656070848       -0.57731123601738
H           92.21894062286664        9.12706424501145       -2.26716289353018
H           93.82782172995564        8.50178658218019       -6.41295202634577
H           92.46020329682938        5.80145994968305       -4.95710791385345
H           94.12070732123961        4.58540620476916       -3.27860267895480
H           95.65066037602200        2.45920248690554       -3.85283376517036
C           49.69692457703456        1.62773435923776       -2.98183260857972
C           50.86551040187384        1.60066220425462       -2.61858832152955
C           52.13264620949817        1.54095799578121       -2.17333552256655
C           53.27453077733678        1.46064936374200       -1.72584920034624
C           54.48525809737515        1.32537808161639       -1.16177508516712
C           55.57554498341301        1.17242792622608       -0.62104893600798
C           56.69871808634260        0.96898266760604        0.14373238079029
C           58.02912634726324        1.24412794308265        0.29899325557473
C           63.86847293411717       -2.46250948699287        1.75721750753405
C           65.07943822179398       -1.94069618762756        1.46021244617181
C           66.20581796184608       -1.44500399800170        1.38191609090936
C           67.45543766608610       -0.97600917010767        1.41635771333920
C           68.61238756772715       -0.58423031279247        1.58956710291922
C           69.84391048767411       -0.18323665247321        1.92576093768173
C           70.92998028061122        0.13829841235436        2.40312203946461
C           72.10014228884131        0.51213131584968        3.01415462208829
C           77.48256133343023        2.93032246463140       -1.14283309071397
C           78.79814746577739        2.59542211269593       -1.05711014877804
C           79.95555328779500        2.29569928653167       -1.72978159222816
C           81.07712007573488        2.09714606438451       -2.18661591632631
C           82.32127281227423        1.87657584593107       -2.63888420036133
C           83.49137217763088        1.69004996158873       -2.96616245619893
C           84.78675602960243        1.48825928823874       -3.26371944830888
C           85.97873268466836        1.31649958401481       -3.48255067653618
Zn          60.00552872622553       -1.79514232125999        1.72890894535636
C           57.13986384801412       -0.09779758114107        1.00697927514536
C           57.12954673363266       -1.48729628893481        0.70979074082058
C           56.01758063200931       -2.17583843836986        0.14512297019056
C           56.38351349589738       -3.48569739583813        0.03914082719633
C           57.72264001652723       -3.59340436639747        0.53005117075673
N           58.13970150412654       -2.34558196017000        0.95049094661705
C           58.51894103984701       -4.73799253169709        0.46424558100350
C           57.86470185999646       -5.97877677479201       -0.02049978374969
C           56.81039778551427       -6.53581856200641        0.69750148961278
C           56.19423134000119       -7.70599869551974        0.25617740891651
C           55.07991188611507       -8.25398219432352        1.06975396299461
O           54.55611090407113       -9.38288733399189        0.57043722698650
O           54.66717866089621       -7.75144020823122        2.08350303017564
C           56.62762780132815       -8.32406783128962       -0.91669489725914
C           57.67280276115567       -7.76715204498439       -1.63681879107459
C           58.28987052979743       -6.60561509333749       -1.19370608641022
C           59.88284866969107       -4.82094291771061        0.77814512651309
C           60.71744467301350       -5.96893611427554        0.66014886458164
C           61.98709116065729       -5.59040574064702        1.01842754639544
N           60.64425449043947       -3.76751536024217        1.23409332263176
C           61.90831383095154       -4.22300762011068        1.36446830919056
C           62.90113307322998       -3.35198275418761        1.87143194840732
C           62.81671093704202       -2.24828853678732        2.89174950931452
C           63.28950184102774       -2.23063576263334        4.26514550205271
C           62.60874776414006       -1.25724160582781        4.90426394870392
C           61.63011681713497       -0.72314937861483        3.98112126027423
N           61.76173246718993       -1.31642654422754        2.78294600327978
C           60.69329626537612        0.29145683382899        4.26921294136740
C           60.77788213663928        0.96505325215093        5.58979151562077
C           61.05606717307086        2.33223711836231        5.66822771043897
C           61.13886917718375        2.97114609116366        6.89774881908376
C           60.94525518691800        2.25502409233263        8.06714705564873
C           60.66242161056702        0.88940021094843        8.00404598322547
C           60.45044243838576        0.15805876025373        9.27654267712049
O           60.18164295735405       -1.14670560007101        9.11003950094826
O           60.50783316239244        0.66112195891165       10.37003806499768
C           60.57871563744726        0.24925033618964        6.76881429561259
C           59.65125488746737        0.65231201469295        3.41313044589607
C           58.62817142923009        1.63277921257343        3.74697741244747
C           57.73411115280244        1.65179893117676        2.75240067364061
C           58.18606769481958        0.69086513320502        1.72050086269442
N           59.37323458801362        0.09820891151362        2.21354350633890
H           55.08175261133136       -1.71905947779997       -0.13442764212198
H           55.79885641739533       -4.29861716619473       -0.36052979921548
H           56.46732947833635       -6.07295141900542        1.61633978822104
H           53.83887082336364       -9.67470512533445        1.15637159578194
H           56.14650015056339       -9.23196141673681       -1.25976018222701
H           58.01100772440375       -8.23958059667913       -2.55212364202374
H           59.09793012657870       -6.16836137054114       -1.76933331614912
H           60.39541265307717       -6.95197082578022        0.35596817221320
H           62.87880202204380       -6.19510878796610        1.05033022894991
H           64.09622054314971       -2.84420438405286        4.63371051995248
H           62.73926828033630       -0.92936131819408        5.92339836282808
H           61.22106797813895        2.89303853057983        4.75477052605419
H           61.35968058682260        4.03178806098617        6.94058612376652
H           61.00786944967135        2.73753792914341        9.03591217731061
H           60.05440410618838       -1.54706747405272        9.98527213178396
H           60.33851941579243       -0.80655722859510        6.72444170377020
H           58.61034512607905        2.20840814744995        4.65907041954649
H           56.83798455330715        2.24161264511742        2.64559434118149
Zn          75.36589044025639        1.48104955871987        1.86697843828623
C           72.81579359990316        0.63125643899278        4.25591526068792
C           73.36298426975574       -0.42569041102437        3.31540844913312
C           73.11577980440288       -1.83008272086473        3.57591725155091
C           74.17318260300942       -2.51753523957970        3.08887894868911
C           75.08629003385259       -1.55664691702742        2.53183774860263
N           74.55517040291777       -0.31394692980142        2.62117382553212
C           76.35929442652821       -1.86451332437522        2.00913611499066
C           76.75626104329534       -3.29531298702653        2.01013613290741
C           76.91554834602246       -3.98958695955319        3.20565324746919
C           77.29005635652807       -5.33269532803376        3.19748934854633
C           77.44896950058113       -6.01756537820200        4.50565416189290
O           77.81252055074269       -7.30315613174665        4.39616200324309
O           77.27232360240437       -5.49043706207610        5.57373827013146
C           77.50251269573084       -5.99260814853483        1.98732591737557
C           77.34398184371284       -5.30292082886424        0.79559859178630
C           76.97746586665424       -3.96453458844003        0.80418697203396
C           77.27659338848021       -0.95849997322638        1.48824089174394
C           78.57902100052334       -1.27515618899274        0.98400277020383
C           79.10873077821186       -0.12121953851267        0.48797713463962
N           77.05670677998359        0.39741638496127        1.32499233366499
C           78.13288050440504        0.89844551691963        0.69864748260940
C           78.27855040889767        2.25194072194556        0.25818058152315
C           77.27045976474122        3.33303921608464        0.33306700803124
C           77.67892078988771        4.75327377843358        0.47083115208441
C           76.67424514119053        5.40528197477008        1.06273261171248
C           75.66043269173301        4.42765736452621        1.44206873129766
N           76.04303649355577        3.19661954400609        1.02664579640989
C           74.48331321805590        4.73923921837064        2.11347461096819
C           74.16534941103326        6.17063813226258        2.35827898284322
C           73.03675263061400        6.75053506446052        1.77261450638104
C           72.72938831512727        8.08660716330664        1.98978100698471
C           73.54657931381526        8.86604654120407        2.79136081255516
C           74.67641579791653        8.30048851924759        3.38499975591691
C           75.52693899937842        9.16578685655641        4.23699098433431
O           76.60209473874430        8.53811450078919        4.74046385841719
O           75.30247793260442       10.32678910464037        4.46976708397906
C           74.97923408672838        6.95646850302842        3.17215695907788
C           73.58456034284336        3.77948083174437        2.63905631589874
C           72.38261158763447        4.10461413491305        3.37958505964423
C           71.84713684010087        2.95057391412227        3.81526473789495
C           72.71738738512659        1.86353892896083        3.38011450092336
N           73.76613768911328        2.45590614924026        2.61786151421330
H           72.23941608431684       -2.20687390858659        4.07820004395058
H           74.32913044994963       -3.58417698935772        3.10698485026296
H           76.76634191000365       -3.48974541474668        4.15643664665952
H           77.89476185142911       -7.67768593736768        5.28834139359455
H           77.78953819040143       -7.03712164778720        1.98347893114750
H           77.50592812942456       -5.80980296450132       -0.14893520600456
H           76.84597234697573       -3.43234640742855       -0.13130208147900
H           79.03570470551153       -2.25149221053678        1.00812169883287
H           80.07044763668527        0.02627218029453        0.02349099690506
H           78.60266515321176        5.13591235779462        0.06772447732273
H           76.61184495662472        6.46176186297266        1.27029281308879
H           72.40359267845474        6.14811759116130        1.13039292330352
H           71.85106054680575        8.52040875527310        1.52503705285746
H           73.32442364281150        9.91238140879154        2.96768005856846
H           77.09893595846447        9.17161850150186        5.28294750171767
H           75.84389484876010        6.51652217148946        3.65512285140699
H           72.01481580956735        5.10468622164117        3.54548501375909
H           70.95777002587042        2.79930331690794        4.40643372192615
