      -----------------------------------------------------------      
     |                   =====================                   |     
     |                           x T B                           |     
     |                   =====================                   |     
     |                         S. Grimme                         |     
     |          Mulliken Center for Theoretical Chemistry        |     
     |                    University of Bonn                     |     
      -----------------------------------------------------------      

   * xtb version 6.5.1 (b24c23e) compiled by 'conda@728c89f4b128' on 2022-07-12

   xtb is free software: you can redistribute it and/or modify it under
   the terms of the GNU Lesser General Public License as published by
   the Free Software Foundation, either version 3 of the License, or
   (at your option) any later version.
   
   xtb is distributed in the hope that it will be useful,
   but WITHOUT ANY WARRANTY; without even the implied warranty of
   MERCHANTABILITY or FITNESS FOR A PARTICULAR PURPOSE.  See the
   GNU Lesser General Public License for more details.
   
   Cite this work as:
   * C. Bannwarth, E. Caldeweyher, S. Ehlert, A. Hansen, P. Pracht,
     J. Seibert, S. Spicher, S. Grimme, WIREs Comput. Mol. Sci., 2020, 11,
     e01493. DOI: 10.1002/wcms.1493
   
   for GFN2-xTB:
   * C. Bannwarth, S. Ehlert and S. Grimme., J. Chem. Theory Comput., 2019,
     15, 1652-1671. DOI: 10.1021/acs.jctc.8b01176
   for GFN1-xTB:
   * S. Grimme, C. Bannwarth, P. Shushkov, J. Chem. Theory Comput., 2017,
     13, 1989-2009. DOI: 10.1021/acs.jctc.7b00118
   for GFN0-xTB:
   * P. Pracht, E. Caldeweyher, S. Ehlert, S. Grimme, ChemRxiv, 2019, preprint.
     DOI: 10.26434/chemrxiv.8326202.v1
   for GFN-FF:
   * S. Spicher and S. Grimme, Angew. Chem. Int. Ed., 2020, 59, 15665-15673.
     DOI: 10.1002/anie.202004239
   
   for ALPB and GBSA implicit solvation:
   * S. Ehlert, M. Stahn, S. Spicher, S. Grimme, J. Chem. Theory Comput.,
     2021, 17, 4250-4261. DOI: 10.1021/acs.jctc.1c00471
   
   for DFT-D4:
   * E. Caldeweyher, C. Bannwarth and S. Grimme, J. Chem. Phys., 2017,
     147, 034112. DOI: 10.1063/1.4993215
   * E. Caldeweyher, S. Ehlert, A. Hansen, H. Neugebauer, S. Spicher,
     C. Bannwarth and S. Grimme, J. Chem. Phys., 2019, 150, 154122.
     DOI: 10.1063/1.5090222
   * E. Caldeweyher, J.-M. Mewes, S. Ehlert and S. Grimme, Phys. Chem. Chem. Phys.
     2020, 22, 8499-8512. DOI: 10.1039/D0CP00502A
   
   for sTDA-xTB:
   * S. Grimme and C. Bannwarth, J. Chem. Phys., 2016, 145, 054103.
     DOI: 10.1063/1.4959605
   
   in the mass-spec context:
   * V. Asgeirsson, C. Bauer and S. Grimme, Chem. Sci., 2017, 8, 4879.
     DOI: 10.1039/c7sc00601b
   * J. Koopman and S. Grimme, ACS Omega 2019, 4, 12, 15120-15133.
     DOI: 10.1021/acsomega.9b02011
   
   for metadynamics refer to:
   * S. Grimme, J. Chem. Theory Comput., 2019, 155, 2847-2862
     DOI: 10.1021/acs.jctc.9b00143
   
   for SPH calculations refer to:
   * S. Spicher and S. Grimme, J. Chem. Theory Comput., 2021, 17, 1701-1714
     DOI: 10.1021/acs.jctc.0c01306
   
   with help from (in alphabetical order)
   P. Atkinson, C. Bannwarth, F. Bohle, G. Brandenburg, E. Caldeweyher
   M. Checinski, S. Dohm, S. Ehlert, S. Ehrlich, I. Gerasimov, C. Hölzer
   A. Katbashev, J. Koopman, C. Lavigne, S. Lehtola, F. März, M. Müller,
   F. Musil, H. Neugebauer, J. Pisarek, C. Plett, P. Pracht, F. Pultar,
   J. Seibert, P. Shushkov, S. Spicher, M. Stahn, M. Steiner, T. Strunk,
   J. Stückrath, T. Rose, and J. Unsleber
   
 * started run on 2022/07/30 at 02:15:02.984     

           -------------------------------------------------
          |                Calculation Setup                |
           -------------------------------------------------

          program call               : xtb xtbopt.xyz --gfn 1 --vipea
          hostname                   : cx3-15-11.cx3.hpc.ic.ac.uk
          coordinate file            : xtbopt.xyz
          omp threads                :                     1

   ID    Z sym.   atoms
    1   27 Co     1, 61
    2    6 C      2-6, 8-12, 16-20, 22-27, 29-33, 37-42, 62-66, 68-72, 76-80,
                  82-87, 89-93, 97-102, 121-128
    3    7 N      7, 13, 21, 28, 34, 43, 67, 73, 81, 88, 94, 103
    4    8 O      14, 15, 35, 36, 74, 75, 95, 96
    5    1 H      44-60, 104-120

           -------------------------------------------------
          |                 I P E A - x T B                 |
           -------------------------------------------------

        Reference                      10.1039/c7sc00601b
      * Hamiltonian:
        H0-scaling (s, p, d)           2.150000    2.300000    2.000000
        zeta-weighting                 0.000000
      * Dispersion:
        s8                             2.400000
        a1                             0.630000
        a2                             5.000000
        s9                             0.000000
      * Repulsion:
        kExp                           1.500000
        rExp                           1.000000
      * Coulomb:
        alpha                          1.000000
        third order                    atomic
        anisotropic                    false
      * Halogen bond correction:
        rad-scale                      1.300000
        damping                        0.440000


          ...................................................
          :                      SETUP                      :
          :.................................................:
          :  # basis functions                 548          :
          :  # atomic orbitals                 546          :
          :  # shells                          350          :
          :  # electrons                       448          :
          :  # halogen bonds                     0          :
          :  max. iterations                   250          :
          :  Hamiltonian                  GFN1-xTB          :
          :  restarted?                      false          :
          :  GBSA solvation                  false          :
          :  PC potential                    false          :
          :  electronic temp.          300.0000000     K    :
          :  accuracy                    1.0000000          :
          :  -> integral cutoff          0.2500000E+02      :
          :  -> integral neglect         0.1000000E-07      :
          :  -> SCF convergence          0.1000000E-05 Eh   :
          :  -> wf. convergence          0.2000000E-04 e    :
          :  Broyden damping             0.4000000          :
          ...................................................

 iter      E             dE          RMSdq      gap      omega  full diag
   1   -285.7566859 -0.285757E+03  0.105E+01    0.27       0.0  T
   2   -275.8008678  0.995582E+01  0.973E+00    0.01       1.0  T
   3   -283.0558625 -0.725499E+01  0.633E+00    0.30       1.0  T
   4   -273.6378108  0.941805E+01  0.478E+00    0.24       1.0  T
   5   -279.6555374 -0.601773E+01  0.407E+00    0.62       1.0  T
   6   -285.7471019 -0.609156E+01  0.250E+00    0.16       1.0  T
   7   -286.6019580 -0.854856E+00  0.199E+00    0.27       1.0  T
   8   -286.6814078 -0.794498E-01  0.180E+00    0.23       1.0  T
   9   -286.8459733 -0.164566E+00  0.123E+00    0.14       1.0  T
  10   -286.7940036  0.519698E-01  0.145E+00    0.10       1.0  T
  11   -286.7621872  0.318164E-01  0.138E+00    0.24       1.0  T
  12   -286.8746352 -0.112448E+00  0.111E+00    0.19       1.0  T
  13   -286.9117156 -0.370805E-01  0.102E+00    0.15       1.0  T
  14   -287.1167751 -0.205059E+00  0.350E-01    0.01       1.0  T
  15   -287.1180615 -0.128640E-02  0.258E-01    0.02       1.0  T
  16   -287.1040590  0.140024E-01  0.387E-01    0.03       1.0  T
  17   -287.1305970 -0.265380E-01  0.106E-01    0.01       1.0  T
  18   -287.1192604  0.113367E-01  0.253E-01    0.02       1.0  T
  19   -287.1319106 -0.126502E-01  0.511E-02    0.00       1.0  T
  20   -287.1324862 -0.575606E-03  0.103E-02    0.00       1.0  T
  21   -287.1316460  0.840219E-03  0.654E-02    0.01       1.0  T
  22   -287.1324907 -0.844724E-03  0.114E-02    0.00       1.0  T
  23   -287.1324945 -0.376349E-05  0.100E-02    0.00       1.0  T
  24   -287.1325027 -0.825977E-05  0.772E-03    0.00       1.1  T
  25   -287.1325073 -0.459062E-05  0.544E-03    0.00       1.6  T
  26   -287.1325104 -0.307382E-05  0.360E-03    0.00       2.5  T
  27   -287.1325114 -0.104833E-05  0.241E-03    0.00       3.7  T
  28   -287.1325123 -0.837644E-06  0.110E-03    0.00       8.0  T
  29   -287.1325124 -0.146868E-06  0.400E-04    0.00      22.1  T
  30   -287.1325124  0.292926E-07  0.546E-04    0.00      16.2  T
  31   -287.1325124 -0.235411E-07  0.399E-04    0.00      22.1  T
  32   -287.1325124 -0.126904E-07  0.289E-04    0.00      30.6  T
  33   -287.1325124 -0.165209E-07  0.345E-05    0.00     256.5  T
  34   -287.1325124  0.754312E-10  0.379E-05    0.00     233.4  T

   *** convergence criteria satisfied after 34 iterations ***

         #    Occupation            Energy/Eh            Energy/eV
      -------------------------------------------------------------
         1        2.0000           -1.1859440             -32.2712
       ...           ...                  ...                  ...
       218        1.9999           -0.3771954             -10.2640
       219        1.9999           -0.3771699             -10.2633
       220        1.9999           -0.3763521             -10.2411
       221        1.9998           -0.3761982             -10.2369
       222        1.9998           -0.3761273             -10.2349
       223        1.9998           -0.3761230             -10.2348
       224        1.0074           -0.3671996              -9.9920 (HOMO)
       225        0.9933           -0.3671726              -9.9913 (LUMO)
       226                         -0.3264840              -8.8841
       227                         -0.3193568              -8.6901
       228                         -0.3192519              -8.6873
       229                         -0.3143612              -8.5542
       ...                                ...                  ...
       546                        503.1195731           13690.5804
      -------------------------------------------------------------
                  HL-Gap            0.0000269 Eh            0.0007 eV
             Fermi-level           -0.3671854 Eh           -9.9916 eV

 SCC (total)                   0 d,  0 h,  0 min,  6.175 sec
 SCC setup                      ...        0 min,  0.005 sec (  0.076%)
 Dispersion                     ...        0 min,  0.007 sec (  0.105%)
 classical contributions        ...        0 min,  0.002 sec (  0.036%)
 integral evaluation            ...        0 min,  0.503 sec (  8.139%)
 iterations                     ...        0 min,  4.529 sec ( 73.346%)
 molecular gradient             ...        0 min,  1.097 sec ( 17.770%)
 printout                       ...        0 min,  0.033 sec (  0.526%)

         :::::::::::::::::::::::::::::::::::::::::::::::::::::
         ::                     SUMMARY                     ::
         :::::::::::::::::::::::::::::::::::::::::::::::::::::
         :: total energy            -282.070056022967 Eh    ::
         :: gradient norm              0.100694782638 Eh/a0 ::
         :: HOMO-LUMO gap              0.000732394403 eV    ::
         ::.................................................::
         :: SCC energy              -287.132512434135 Eh    ::
         :: -> electrostatic           0.225277387725 Eh    ::
         :: repulsion energy           5.175572618533 Eh    ::
         :: dispersion energy         -0.113116207366 Eh    ::
         :: halogen bond corr.         0.000000000000 Eh    ::
         :: add. restraining           0.000000000000 Eh    ::
         :: total charge               0.000000000214 e     ::
         :::::::::::::::::::::::::::::::::::::::::::::::::::::

           ------------------------------------------------- 
          |        vertical delta SCC IP calculation        |
           ------------------------------------------------- 
   1   -286.6830277 -0.286683E+03  0.552E-01    0.00       0.0  T
   2   -286.2204622  0.462565E+00  0.173E+00    0.30       1.0  T
   3   -286.6967206 -0.476258E+00  0.411E-01    0.00       1.0  T
   4   -286.6968192 -0.985683E-04  0.377E-01    0.03       1.0  T
   5   -286.6635814  0.332378E-01  0.535E-01    0.07       1.0  T
   6   -286.7117704 -0.481890E-01  0.237E-01    0.00       1.0  T
   7   -286.7207058 -0.893544E-02  0.374E-02    0.00       1.0  T
   8   -286.7166329  0.407288E-02  0.157E-01    0.00       1.0  T
   9   -286.7208892 -0.425626E-02  0.162E-02    0.00       1.0  T
  10   -286.7208819  0.727803E-05  0.168E-02    0.00       1.0  T
  11   -286.7209098 -0.278258E-04  0.107E-02    0.00       1.0  T
  12   -286.7209254 -0.156914E-04  0.256E-03    0.00       3.4  T
  13   -286.7209266 -0.110664E-05  0.137E-03    0.00       6.5  T
  14   -286.7209266 -0.244440E-07  0.154E-03    0.00       5.7  T
  15   -286.7209268 -0.205380E-06  0.104E-03    0.00       8.5  T
  16   -286.7209268 -0.398042E-07  0.900E-04    0.00       9.8  T
  17   -286.7209269 -0.106127E-06  0.401E-04    0.00      22.0  T
  18   -286.7209270 -0.244257E-07  0.117E-04    0.00      75.3  T
  19   -286.7209270 -0.229414E-08  0.285E-05    0.00     310.0  T
     SCC iter.                  ...        0 min,  2.529 sec
     gradient                   ...        0 min,  1.108 sec
------------------------------------------------------------------------
empirical IP shift (eV):    4.8455
delta SCC IP (eV):    6.3543
------------------------------------------------------------------------
           ------------------------------------------------- 
          |        vertical delta SCC EA calculation        |
           ------------------------------------------------- 
   1   -287.3547447 -0.287355E+03  0.949E-01    1.56       0.0  T
   2   -287.1836329  0.171112E+00  0.128E+00    0.11       1.0  T
   3   -287.4268331 -0.243200E+00  0.520E-01    1.01       1.0  T
   4   -287.3680906  0.587425E-01  0.725E-01    0.70       1.0  T
   5   -287.4499918 -0.819012E-01  0.236E-01    0.76       1.0  T
   6   -287.4550708 -0.507903E-02  0.644E-02    0.57       1.0  T
   7   -287.4549352  0.135581E-03  0.673E-02    0.51       1.0  T
   8   -287.4551367 -0.201503E-03  0.577E-02    0.52       1.0  T
   9   -287.4555232 -0.386492E-03  0.339E-02    0.54       1.0  T
  10   -287.4556445 -0.121235E-03  0.226E-02    0.55       1.0  T
  11   -287.4556578 -0.133234E-04  0.207E-02    0.55       1.0  T
  12   -287.4557120 -0.542656E-04  0.129E-02    0.55       1.0  T
  13   -287.4557242 -0.121601E-04  0.104E-02    0.55       1.0  T
  14   -287.4557455 -0.213106E-04  0.186E-03    0.55       4.7  T
  15   -287.4557458 -0.301948E-06  0.136E-03    0.55       6.5  T
  16   -287.4557461 -0.230499E-06  0.851E-04    0.55      10.4  T
  17   -287.4557462 -0.129764E-06  0.287E-04    0.55      30.8  T
  18   -287.4557462 -0.156707E-07  0.438E-05    0.55     201.8  T
  19   -287.4557462 -0.252442E-09  0.143E-05    0.55     618.3  T
     SCC iter.                  ...        0 min,  2.532 sec
     gradient                   ...        0 min,  1.104 sec
------------------------------------------------------------------------
empirical EA shift (eV):    4.8455
delta SCC EA (eV):    3.9501
------------------------------------------------------------------------
           -------------------------------------------------
          |                Property Printout                |
           -------------------------------------------------

    * Orbital Energies and Occupations

         #    Occupation            Energy/Eh            Energy/eV
      -------------------------------------------------------------
         1        2.0000           -1.1415226             -31.0624
       ...           ...                  ...                  ...
       213        2.0000           -0.3503456              -9.5334
       214        2.0000           -0.3361148              -9.1461
       215        2.0000           -0.3360242              -9.1437
       216        2.0000           -0.3354144              -9.1271
       217        2.0000           -0.3245231              -8.8307
       218        2.0000           -0.2948043              -8.0220
       219        2.0000           -0.2944165              -8.0115
       220        2.0000           -0.2944007              -8.0111
       221        2.0000           -0.2943537              -8.0098
       222        1.9999           -0.2926542              -7.9635
       223        1.9999           -0.2926272              -7.9628
       224        1.5057           -0.2836791              -7.7193
       225        1.4944           -0.2836362              -7.7181 (HOMO)
       226        0.0000           -0.2632773              -7.1641 (LUMO)
       227        0.0000           -0.2632255              -7.1627
       228        0.0000           -0.2620309              -7.1302
       229        0.0000           -0.2584506              -7.0328
       230                         -0.2575193              -7.0075
       231                         -0.2485832              -6.7643
       232                         -0.2429202              -6.6102
       233                         -0.2427571              -6.6058
       234                         -0.2177625              -5.9256
       235                         -0.2167961              -5.8993
       236                         -0.2085975              -5.6762
       ...                                ...                  ...
       546                        503.1818871           13692.2761
      -------------------------------------------------------------
                  HL-Gap            0.0203589 Eh            0.5540 eV
             Fermi-level           -0.2785876 Eh           -7.5808 eV

  Mulliken/CM5 charges         n(s)   n(p)   n(d)
     1Co    0.26963  0.67904   0.332  0.975  7.423
     2C    -0.02210 -0.06333   1.086  2.937  0.000
     3C     0.05331  0.11370   1.110  2.837  0.000
     4C    -0.04142 -0.08791   1.083  2.958  0.000
     5C    -0.04120 -0.08738   1.075  2.966  0.000
     6C     0.05584  0.11984   1.104  2.840  0.000
     7N    -0.21613 -0.47738   1.319  3.897  0.000
     8C     0.00476  0.01022   1.079  2.916  0.000
     9C     0.02038  0.01178   1.096  2.884  0.000
    10C    -0.01466 -0.06761   1.079  2.936  0.000
    11C    -0.00930 -0.05600   1.091  2.918  0.000
    12C     0.04221  0.09673   1.116  2.841  0.000
    13N     0.29530  0.12325   1.471  3.234  0.000
    14O    -0.27801 -0.23706   1.675  4.603  0.000
    15O    -0.27691 -0.23596   1.675  4.602  0.000
    16C    -0.00998 -0.05668   1.091  2.919  0.000
    17C    -0.01533 -0.06831   1.078  2.937  0.000
    18C     0.05511  0.11846   1.102  2.843  0.000
    19C    -0.03993 -0.08607   1.074  2.966  0.000
    20C    -0.03905 -0.08463   1.081  2.958  0.000
    21N    -0.21425 -0.47549   1.320  3.894  0.000
    22C     0.05926  0.12429   1.116  2.825  0.000
    23C     0.01680  0.02387   1.079  2.904  0.000
    24C     0.05934  0.12444   1.115  2.825  0.000
    25C    -0.03900 -0.08459   1.081  2.958  0.000
    26C    -0.03979 -0.08599   1.074  2.966  0.000
    27C     0.05511  0.11834   1.103  2.842  0.000
    28N    -0.21436 -0.47518   1.320  3.895  0.000
    29C     0.00474  0.01021   1.079  2.916  0.000
    30C     0.02030  0.01171   1.096  2.884  0.000
    31C    -0.01545 -0.06843   1.079  2.937  0.000
    32C    -0.01005 -0.05676   1.091  2.919  0.000
    33C     0.04218  0.09669   1.116  2.841  0.000
    34N     0.29520  0.12315   1.471  3.234  0.000
    35O    -0.27811 -0.23715   1.675  4.603  0.000
    36O    -0.27697 -0.23602   1.675  4.602  0.000
    37C    -0.00934 -0.05605   1.091  2.918  0.000
    38C    -0.01458 -0.06758   1.078  2.936  0.000
    39C     0.05587  0.11997   1.104  2.840  0.000
    40C    -0.04123 -0.08741   1.075  2.967  0.000
    41C    -0.04146 -0.08796   1.083  2.958  0.000
    42C     0.05323  0.11356   1.110  2.837  0.000
    43N    -0.21599 -0.47773   1.319  3.897  0.000
    44H     0.02294  0.08184   0.977  0.000  0.000
    45H     0.02519  0.08182   0.975  0.000  0.000
    46H     0.01825  0.07700   0.982  0.000  0.000
    47H     0.03244  0.09056   0.968  0.000  0.000
    48H     0.05032  0.11425   0.950  0.000  0.000
    49H     0.04900  0.11293   0.951  0.000  0.000
    50H     0.03148  0.08963   0.969  0.000  0.000
    51H     0.01991  0.07870   0.980  0.000  0.000
    52H     0.02294  0.08098   0.977  0.000  0.000
    53H     0.02297  0.08097   0.977  0.000  0.000
    54H     0.01978  0.07858   0.980  0.000  0.000
    55H     0.03125  0.08941   0.969  0.000  0.000
    56H     0.04892  0.11285   0.951  0.000  0.000
    57H     0.05036  0.11430   0.950  0.000  0.000
    58H     0.03253  0.09075   0.967  0.000  0.000
    59H     0.01835  0.07712   0.982  0.000  0.000
    60H     0.02517  0.08180   0.975  0.000  0.000
    61Co    0.26913  0.67700   0.332  0.975  7.424
    62C    -0.02209 -0.06333   1.085  2.937  0.000
    63C     0.05337  0.11377   1.110  2.837  0.000
    64C    -0.04142 -0.08792   1.084  2.958  0.000
    65C    -0.04121 -0.08739   1.075  2.966  0.000
    66C     0.05586  0.11988   1.104  2.840  0.000
    67N    -0.21618 -0.47704   1.319  3.897  0.000
    68C     0.00481  0.01025   1.079  2.916  0.000
    69C     0.02044  0.01182   1.096  2.883  0.000
    70C    -0.01466 -0.06760   1.079  2.936  0.000
    71C    -0.00928 -0.05598   1.091  2.918  0.000
    72C     0.04223  0.09674   1.116  2.841  0.000
    73N     0.29535  0.12331   1.471  3.233  0.000
    74O    -0.27797 -0.23702   1.675  4.603  0.000
    75O    -0.27685 -0.23589   1.675  4.602  0.000
    76C    -0.00994 -0.05664   1.091  2.919  0.000
    77C    -0.01531 -0.06828   1.078  2.937  0.000
    78C     0.05515  0.11851   1.102  2.843  0.000
    79C    -0.03994 -0.08607   1.074  2.966  0.000
    80C    -0.03905 -0.08464   1.082  2.958  0.000
    81N    -0.21429 -0.47512   1.320  3.894  0.000
    82C     0.05932  0.12436   1.116  2.825  0.000
    83C     0.01682  0.02386   1.079  2.904  0.000
    84C     0.05940  0.12450   1.115  2.825  0.000
    85C    -0.03900 -0.08459   1.081  2.958  0.000
    86C    -0.03981 -0.08600   1.074  2.966  0.000
    87C     0.05514  0.11838   1.103  2.842  0.000
    88N    -0.21440 -0.47483   1.320  3.895  0.000
    89C     0.00479  0.01024   1.079  2.916  0.000
    90C     0.02035  0.01175   1.096  2.884  0.000
    91C    -0.01543 -0.06841   1.079  2.937  0.000
    92C    -0.01002 -0.05673   1.091  2.919  0.000
    93C     0.04219  0.09670   1.116  2.841  0.000
    94N     0.29525  0.12321   1.471  3.234  0.000
    95O    -0.27801 -0.23705   1.675  4.603  0.000
    96O    -0.27698 -0.23604   1.675  4.602  0.000
    97C    -0.00932 -0.05603   1.091  2.918  0.000
    98C    -0.01457 -0.06756   1.078  2.936  0.000
    99C     0.05591  0.12000   1.104  2.840  0.000
   100C    -0.04125 -0.08742   1.074  2.967  0.000
   101C    -0.04146 -0.08797   1.084  2.958  0.000
   102C     0.05329  0.11363   1.110  2.837  0.000
   103N    -0.21604 -0.47738   1.319  3.897  0.000
   104H     0.02290  0.08182   0.977  0.000  0.000
   105H     0.02520  0.08184   0.975  0.000  0.000
   106H     0.01830  0.07705   0.982  0.000  0.000
   107H     0.03246  0.09056   0.968  0.000  0.000
   108H     0.05033  0.11425   0.950  0.000  0.000
   109H     0.04902  0.11295   0.951  0.000  0.000
   110H     0.03151  0.08964   0.968  0.000  0.000
   111H     0.01996  0.07877   0.980  0.000  0.000
   112H     0.02295  0.08101   0.977  0.000  0.000
   113H     0.02299  0.08100   0.977  0.000  0.000
   114H     0.01983  0.07864   0.980  0.000  0.000
   115H     0.03128  0.08941   0.969  0.000  0.000
   116H     0.04894  0.11287   0.951  0.000  0.000
   117H     0.05036  0.11430   0.950  0.000  0.000
   118H     0.03255  0.09074   0.967  0.000  0.000
   119H     0.01840  0.07718   0.982  0.000  0.000
   120H     0.02518  0.08182   0.975  0.000  0.000
   121C    -0.01434 -0.01587   1.096  2.919  0.000
   122C    -0.02136 -0.02202   1.064  2.958  0.000
   123C    -0.01419 -0.01427   1.078  2.936  0.000
   124C    -0.01628 -0.01629   1.076  2.941  0.000
   125C    -0.01627 -0.01628   1.076  2.941  0.000
   126C    -0.01420 -0.01428   1.078  2.936  0.000
   127C    -0.02135 -0.02201   1.064  2.958  0.000
   128C    -0.01434 -0.01588   1.096  2.919  0.000

Wiberg/Mayer (AO) data.
largest (>0.10) Wiberg bond orders for each atom

 ---------------------------------------------------------------------------
     #   Z sym  total        # sym  WBO       # sym  WBO       # sym  WBO
 ---------------------------------------------------------------------------
     1  27 Co   3.845 --     7 N    0.720    43 N    0.720    28 N    0.715
                            21 N    0.714
     2   6 C    3.847 --    42 C    1.392     3 C    1.392    44 H    0.997
     3   6 C    3.960 --     2 C    1.392     7 N    1.243     4 C    1.198
     4   6 C    3.856 --     5 C    1.642     3 C    1.198    45 H    0.995
     5   6 C    3.835 --     4 C    1.642     6 C    1.203    46 H    0.999
     6   6 C    3.937 --     8 C    1.359     7 N    1.250     5 C    1.203
     7   7 N    2.993 --     6 C    1.250     3 C    1.243     1 Co   0.720
     8   6 C    3.845 --    18 C    1.362     6 C    1.359     9 C    1.059
     9   6 C    3.898 --    17 C    1.413    10 C    1.413     8 C    1.059
    10   6 C    3.866 --    11 C    1.468     9 C    1.413    47 H    0.988
    11   6 C    3.899 --    10 C    1.468    12 C    1.402    48 H    0.986
    12   6 C    3.931 --    16 C    1.402    11 C    1.402    13 N    1.007
    13   7 N    4.108 --    15 O    1.566    14 O    1.565    12 C    1.007
    14   8 O    2.004 --    13 N    1.565    15 O    0.379
    15   8 O    2.005 --    13 N    1.566    14 O    0.379
    16   6 C    3.899 --    17 C    1.468    12 C    1.402    49 H    0.986
    17   6 C    3.867 --    16 C    1.468     9 C    1.413    50 H    0.989
    18   6 C    3.928 --     8 C    1.362    21 N    1.241    19 C    1.209
    19   6 C    3.830 --    20 C    1.629    18 C    1.209    51 H    0.998
    20   6 C    3.850 --    19 C    1.629    22 C    1.220    52 H    0.999
    21   7 N    3.000 --    22 C    1.265    18 C    1.241     1 Co   0.714
    22   6 C    3.937 --    23 C    1.302    21 N    1.265    20 C    1.220
    23   6 C    3.875 --    24 C    1.303    22 C    1.302   121 C    1.213
    24   6 C    3.938 --    23 C    1.303    28 N    1.267    25 C    1.220
    25   6 C    3.848 --    26 C    1.629    24 C    1.220    53 H    0.999
    26   6 C    3.830 --    25 C    1.629    27 C    1.209    54 H    0.998
    27   6 C    3.928 --    29 C    1.364    28 N    1.239    26 C    1.209
    28   7 N    3.000 --    24 C    1.267    27 C    1.239     1 Co   0.715
    29   6 C    3.845 --    27 C    1.364    39 C    1.356    30 C    1.061
    30   6 C    3.897 --    31 C    1.413    38 C    1.413    29 C    1.061
    31   6 C    3.866 --    32 C    1.468    30 C    1.413    55 H    0.989
    32   6 C    3.899 --    31 C    1.468    33 C    1.402    56 H    0.986
    33   6 C    3.930 --    32 C    1.402    37 C    1.402    34 N    1.007
    34   7 N    4.108 --    36 O    1.566    35 O    1.565    33 C    1.007
    35   8 O    2.004 --    34 N    1.565    36 O    0.379
    36   8 O    2.005 --    34 N    1.566    35 O    0.379
    37   6 C    3.898 --    38 C    1.468    33 C    1.402    57 H    0.986
    38   6 C    3.865 --    37 C    1.468    30 C    1.413    58 H    0.989
    39   6 C    3.937 --    29 C    1.356    43 N    1.252    40 C    1.204
    40   6 C    3.835 --    41 C    1.641    39 C    1.204    59 H    0.999
    41   6 C    3.856 --    40 C    1.641    42 C    1.198    60 H    0.995
    42   6 C    3.960 --     2 C    1.392    43 N    1.242    41 C    1.198
    43   7 N    2.993 --    39 C    1.252    42 C    1.242     1 Co   0.720
    44   1 H    1.036 --     2 C    0.997
    45   1 H    1.028 --     4 C    0.995
    46   1 H    1.042 --     5 C    0.999
    47   1 H    1.051 --    10 C    0.988
    48   1 H    1.031 --    11 C    0.986
    49   1 H    1.031 --    16 C    0.986
    50   1 H    1.051 --    17 C    0.989
    51   1 H    1.041 --    19 C    0.998
    52   1 H    1.039 --    20 C    0.999
    53   1 H    1.039 --    25 C    0.999
    54   1 H    1.042 --    26 C    0.998
    55   1 H    1.051 --    31 C    0.989
    56   1 H    1.031 --    32 C    0.986
    57   1 H    1.031 --    37 C    0.986
    58   1 H    1.051 --    38 C    0.989
    59   1 H    1.042 --    40 C    0.999
    60   1 H    1.028 --    41 C    0.995
    61  27 Co   3.839 --    67 N    0.720   103 N    0.719    88 N    0.714
                            81 N    0.714
    62   6 C    3.847 --   102 C    1.393    63 C    1.392   104 H    0.997
    63   6 C    3.960 --    62 C    1.392    67 N    1.243    64 C    1.198
    64   6 C    3.856 --    65 C    1.642    63 C    1.198   105 H    0.995
    65   6 C    3.835 --    64 C    1.642    66 C    1.203   106 H    0.999
    66   6 C    3.937 --    68 C    1.359    67 N    1.250    65 C    1.203
    67   7 N    2.992 --    66 C    1.250    63 C    1.243    61 Co   0.720
    68   6 C    3.845 --    78 C    1.363    66 C    1.359    69 C    1.058
    69   6 C    3.898 --    77 C    1.414    70 C    1.414    68 C    1.058
    70   6 C    3.866 --    71 C    1.467    69 C    1.414   107 H    0.988
    71   6 C    3.899 --    70 C    1.467    72 C    1.402   108 H    0.986
    72   6 C    3.931 --    76 C    1.402    71 C    1.402    73 N    1.007
    73   7 N    4.108 --    75 O    1.566    74 O    1.565    72 C    1.007
    74   8 O    2.005 --    73 N    1.565    75 O    0.379
    75   8 O    2.006 --    73 N    1.566    74 O    0.379
    76   6 C    3.899 --    77 C    1.467    72 C    1.402   109 H    0.986
    77   6 C    3.867 --    76 C    1.467    69 C    1.414   110 H    0.989
    78   6 C    3.928 --    68 C    1.363    81 N    1.241    79 C    1.209
    79   6 C    3.830 --    80 C    1.629    78 C    1.209   111 H    0.998
    80   6 C    3.850 --    79 C    1.629    82 C    1.220   112 H    0.999
    81   7 N    3.000 --    82 C    1.266    78 C    1.241    61 Co   0.714
    82   6 C    3.937 --    83 C    1.303    81 N    1.266    80 C    1.220
    83   6 C    3.875 --    84 C    1.303    82 C    1.303   128 C    1.213
    84   6 C    3.938 --    83 C    1.303    88 N    1.267    85 C    1.220
    85   6 C    3.848 --    86 C    1.629    84 C    1.220   113 H    0.999
    86   6 C    3.830 --    85 C    1.629    87 C    1.208   114 H    0.998
    87   6 C    3.928 --    89 C    1.365    88 N    1.239    86 C    1.208
    88   7 N    3.000 --    84 C    1.267    87 C    1.239    61 Co   0.714
    89   6 C    3.845 --    87 C    1.365    99 C    1.356    90 C    1.060
    90   6 C    3.897 --    91 C    1.413    98 C    1.413    89 C    1.060
    91   6 C    3.866 --    92 C    1.468    90 C    1.413   115 H    0.989
    92   6 C    3.899 --    91 C    1.468    93 C    1.402   116 H    0.986
    93   6 C    3.931 --    92 C    1.402    97 C    1.402    94 N    1.007
    94   7 N    4.108 --    96 O    1.566    95 O    1.565    93 C    1.007
    95   8 O    2.004 --    94 N    1.565    96 O    0.379
    96   8 O    2.005 --    94 N    1.566    95 O    0.379
    97   6 C    3.899 --    98 C    1.468    93 C    1.402   117 H    0.986
    98   6 C    3.867 --    97 C    1.468    90 C    1.413   118 H    0.989
    99   6 C    3.937 --    89 C    1.356   103 N    1.252   100 C    1.204
   100   6 C    3.835 --   101 C    1.641    99 C    1.204   119 H    0.999
   101   6 C    3.858 --   100 C    1.641   102 C    1.198   120 H    0.995
   102   6 C    3.960 --    62 C    1.393   103 N    1.242   101 C    1.198
   103   7 N    2.993 --    99 C    1.252   102 C    1.242    61 Co   0.719
   104   1 H    1.036 --    62 C    0.997
   105   1 H    1.028 --    64 C    0.995
   106   1 H    1.042 --    65 C    0.999
   107   1 H    1.051 --    70 C    0.988
   108   1 H    1.031 --    71 C    0.986
   109   1 H    1.031 --    76 C    0.986
   110   1 H    1.051 --    77 C    0.989
   111   1 H    1.041 --    79 C    0.998
   112   1 H    1.039 --    80 C    0.999
   113   1 H    1.039 --    85 C    0.999
   114   1 H    1.042 --    86 C    0.998
   115   1 H    1.051 --    91 C    0.989
   116   1 H    1.031 --    92 C    0.986
   117   1 H    1.031 --    97 C    0.986
   118   1 H    1.051 --    98 C    0.989
   119   1 H    1.042 --   100 C    0.999
   120   1 H    1.028 --   101 C    0.995
   121   6 C    3.759 --   122 C    2.476    23 C    1.213   124 C    0.172
   122   6 C    3.833 --   121 C    2.476   123 C    1.359
   123   6 C    3.811 --   124 C    2.353   122 C    1.359   126 C    0.167
   124   6 C    3.847 --   123 C    2.353   125 C    1.388   121 C    0.172
   125   6 C    3.847 --   126 C    2.353   124 C    1.388   128 C    0.172
   126   6 C    3.811 --   125 C    2.353   127 C    1.359   123 C    0.167
   127   6 C    3.833 --   128 C    2.476   126 C    1.359
   128   6 C    3.759 --   127 C    2.476    83 C    1.213   125 C    0.172
 ---------------------------------------------------------------------------

Topologies differ in total number of bonds
Writing topology from bond orders to xtbtopo.mol

 dipole moment from electron density (au)
     X       Y       Z   
 -42.8281   0.0273  -0.1191  total (Debye):  108.859


           -------------------------------------------------
          | TOTAL ENERGY             -282.393289786245 Eh   |
          | GRADIENT NORM               0.110834912330 Eh/α |
          | HOMO-LUMO GAP               0.553993958193 eV   |
           -------------------------------------------------
########################################################################
[WARNING] Runtime exception occurred
-1- restart_readRestart: Dimension missmatch in restart file.
########################################################################

------------------------------------------------------------------------
 * finished run on 2022/07/30 at 02:15:18.053     
------------------------------------------------------------------------
 total:
 * wall-time:     0 d,  0 h,  0 min, 15.069 sec
 *  cpu-time:     0 d,  0 h,  0 min, 14.952 sec
 * ratio c/w:     0.992 speedup
 SCF:
 * wall-time:     0 d,  0 h,  0 min, 14.559 sec
 *  cpu-time:     0 d,  0 h,  0 min, 14.451 sec
 * ratio c/w:     0.993 speedup

