126
 energy: -237.096206471165 gnorm: 1.423535070659 xtb: 6.5.1 (b24c23e)
Fe          17.26417000000000       -0.12271000000000       -0.01778900000000
C           13.91971400000000        0.03308500000000        0.07064500000000
C           14.57113500000000        1.19531600000000        0.17177600000000
C           13.90838500000000        2.49190200000000        0.24297300000000
C           14.84006700000000        3.41892300000000        0.36638500000000
C           16.15137900000000        2.75617000000000        0.39299700000000
N           15.98737200000000        1.34375000000000        0.25915900000000
C           17.33783800000000        3.38155400000000        0.54139900000000
C           17.37373600000000        4.85173400000000        0.71739500000000
C           16.88494700000000        5.43814300000000        1.89607100000000
C           16.92932300000000        6.83346500000000        2.07217700000000
C           16.40974400000000        7.45462600000000        3.31043900000000
O           16.46060600000000        8.83621100000000        3.47738800000000
O           15.91624400000000        6.74052400000000        4.22499600000000
C           17.47687600000000        7.63287800000000        1.05365200000000
C           17.97066300000000        7.04905400000000       -0.11591500000000
C           17.92183700000000        5.66426100000000       -0.28461800000000
C           18.63581599999999        2.65687600000000        0.54776800000000
C           19.91348100000000        3.27339700000000        0.92537100000000
C           20.85654000000000        2.36366300000000        0.78761500000000
N           18.79006300000000        1.41689600000000        0.19707100000000
C           20.18772500000000        1.15470000000000        0.32276600000000
C           20.79268400000000        0.00000000000000        0.00000000000000
C           20.04006200000000       -1.19121600000000       -0.45201000000000
C           20.57981300000000       -2.21279100000000       -1.10468800000000
C           19.54616000000000       -3.21732100000000       -1.26369600000000
C           18.44440400000000       -2.74431700000000       -0.69268400000000
N           18.66635800000000       -1.44029100000000       -0.15351600000000
C           17.17283500000000       -3.50190500000000       -0.56803500000000
C           17.20874400000000       -4.97674700000000       -0.72348800000000
C           17.95341900000000       -5.75738500000000        0.17203100000000
C           18.00503700000000       -7.14395000000000        0.01982200000000
C           17.31929100000000       -7.76214500000000       -1.02876400000000
C           16.57435600000000       -6.99504900000000       -1.94254800000000
C           15.84965700000000       -7.64383200000000       -3.05747900000000
O           15.11210700000000       -6.87704300000000       -3.95599800000000
O           15.89223800000000       -8.89540500000000       -3.20449700000000
C           16.52857900000000       -5.59862100000000       -1.78388100000000
C           16.00504300000000       -2.88003700000000       -0.31538200000000
C           14.70356600000000       -3.52159100000000       -0.13655800000000
C           13.83274400000000       -2.54502100000000        0.03038400000000
C           14.56949700000000       -1.28359600000000       -0.02733000000000
N           15.83617600000000       -1.46662100000000       -0.22852900000000
H           12.83612500000000        0.05040800000000        0.06130200000000
H           12.84316900000000        2.67901900000000        0.19761200000000
H           14.64228000000000        4.48072800000000        0.43315500000000
H           16.47303200000000        4.80255500000000        2.67111100000000
H           16.10735500000000        9.27174700000000        4.32107600000000
H           17.52579400000000        8.70924500000000        1.15991000000000
H           18.39282500000000        7.67231000000000       -0.89364200000000
H           18.30894400000000        5.22404500000000       -1.19546700000000
H           20.07481600000000        4.28937700000000        1.26103500000000
H           21.90891100000000        2.51536400000000        0.98743100000000
H           21.60616300000000       -2.30037500000000       -1.43512300000000
H           19.66361900000000       -4.18359400000000       -1.73689500000000
H           18.49030900000000       -5.29118300000000        0.98917800000000
H           18.57858299999999       -7.74180100000000        0.71635200000000
H           17.37441300000000       -8.83928000000000       -1.12505100000000
H           14.61209500000000       -7.31123600000000       -4.72261100000000
H           15.96893100000000       -4.98845900000000       -2.48280500000000
H           14.47149700000000       -4.57844500000000       -0.13565200000000
H           12.76923700000000       -2.66996200000000        0.18620500000000
Fe          27.67872100000000        0.12180100000000        0.02321000000000
C           31.02317700000000       -0.05431900000000        0.05598900000000
C           30.37175600000000       -1.18597100000000       -0.22751100000000
C           31.03450500000000       -2.43486600000000       -0.58313100000000
C           30.10282400000000       -3.35143900000000       -0.76884800000000
C           28.79151100000000       -2.73361500000000       -0.52751300000000
N           28.95551900000000       -1.35478900000000       -0.19332300000000
C           27.60505300000000       -3.37320100000000       -0.59121700000000
C           27.56915500000000       -4.82037800000000       -0.90439300000000
C           28.05794300000000       -5.75917900000000        0.01854000000000
C           28.01356700000000       -7.13562800000000       -0.27011500000000
C           28.53314600000000       -8.12671600000000        0.69781000000000
O           28.48228500000000       -9.48719300000000        0.40497800000000
O           29.02664700000000       -7.74998300000000        1.79527400000000
C           27.46601400000000       -7.55909400000000       -1.49368900000000
C           26.97222800000000       -6.62570900000000       -2.40885500000000
C           27.02105400000000       -5.26162700000000       -2.11663500000000
C           26.30707500000000       -2.69023500000000       -0.34881800000000
C           25.02941000000000       -3.39620400000000       -0.19296700000000
C           24.08635000000000       -2.49129300000000       -0.02644800000000
N           26.15282700000000       -1.40368300000000       -0.27587400000000
C           24.75516600000000       -1.19682700000000       -0.07153000000000
C           24.15020700000000        0.00000000000000        0.00000000000000
C           24.90282900000000        1.27350200000000       -0.03873400000000
C           24.36307800000000        2.45209600000000       -0.32249400000000
C           25.39673100000000        3.45355100000000       -0.14514500000000
C           26.49848700000000        2.82016300000000        0.24035000000000
N           26.27653300000000        1.41159100000000        0.32467900000000
C           27.77005600000000        3.49565700000000        0.60529400000000
C           27.73414700000000        4.94054200000000        0.93941100000000
C           26.98947200000000        5.38638100000000        2.04058200000000
C           26.93785400000000        6.74675800000000        2.34897200000000
C           27.62360000000000        7.67317300000000        1.55938000000000
C           28.36853500000000        7.24609200000000        0.44536100000000
C           29.09323400000000        8.22306300000000       -0.39696900000000
O           29.83078400000000        7.79129400000000       -1.49645900000000
O           29.05065300000000        9.45413800000000       -0.12770500000000
C           28.41431200000000        5.87428500000000        0.13985900000000
C           28.93784700000000        2.82539000000000        0.64128600000000
C           30.23932500000000        3.37352700000000        1.01959300000000
C           31.11014700000000        2.39591500000000        0.85886500000000
C           30.37339300000000        1.22230700000000        0.39285200000000
N           29.10671500000000        1.46094900000000        0.26235600000000
H           32.10676600000000       -0.06764700000000        0.04150700000000
H           32.09972100000000       -2.59695300000000       -0.68704600000000
H           30.30061100000000       -4.37695000000000       -1.05207200000000
H           28.46985900000000       -5.41115800000000        0.95850800000000
H           28.83553600000000      -10.17410500000000        1.06045800000000
H           27.41709700000000       -8.61125100000000       -1.74433500000000
H           26.55006600000000       -6.96119500000000       -3.34734100000000
H           26.63394700000000       -4.54838400000000       -2.83407700000000
H           24.86807400000000       -4.46610400000000       -0.20705600000000
H           23.03397900000000       -2.69987400000000        0.11295700000000
H           23.33672800000000        2.64267200000000       -0.60628900000000
H           25.27927200000000        4.52132400000000       -0.27728200000000
H           26.45258200000000        4.67913800000000        2.66096900000000
H           26.36430800000000        7.08471500000000        3.20241500000000
H           27.56847800000000        8.72280300000000        1.81970300000000
H           30.33079600000000        8.45179500000000       -2.07951700000000
H           28.97396000000000        5.52547200000000       -0.71986200000000
H           30.47139400000000        4.37228200000000        1.36517700000000
H           32.17365400000000        2.46319600000000        1.04691700000000
C           21.86048700000000        0.00000000000000        0.00000000000000
C           23.08240400000000        0.00000000000000        0.00000000000000
126
 energy: -237.426662202443 gnorm: 0.358468117312 xtb: 6.5.1 (b24c23e)
Fe          17.27006826766542       -0.10922150790342       -0.01458348340244
C           13.92109074880068        0.01911929151239        0.07011824932849
C           14.57732757537851        1.19610908340912        0.17223828810061
C           13.90789659861266        2.48571683726343        0.24216181165176
C           14.84865416233256        3.41993575231155        0.36701382059553
C           16.14973184539027        2.74739075355815        0.39184215387174
N           15.97689443144118        1.35048682667433        0.25554593419285
C           17.34992199725752        3.38015571657433        0.54359101424391
C           17.37621577769164        4.85478114735621        0.72080098834986
C           16.88487063191836        5.44326816923346        1.89478428390921
C           16.92938165924567        6.83981834562912        2.07285312848070
C           16.40213102972096        7.45352395682327        3.32704283220546
O           16.46173294969240        8.82522366706446        3.47275325517232
O           15.92241874665463        6.75341550862743        4.21410014561565
C           17.47728686839912        7.63183042017332        1.05262427629621
C           17.96882772210843        7.04775015385479       -0.11264293612829
C           17.92161047116188        5.66642524704139       -0.28122922381147
C           18.62377121053790        2.67828671269405        0.55103874773440
C           19.89890357936901        3.28548266989757        0.92508279211409
C           20.84847249290584        2.35462082934669        0.78466165442304
N           18.77831110341420        1.41833761136666        0.20369696122438
C           20.13244306362027        1.17805005152264        0.32918651048279
C           20.65734658568653       -0.01341910573256       -0.00291433806454
C           19.99469420641769       -1.19898612094906       -0.44850285403262
C           20.57597066004416       -2.22821571886416       -1.10986854032156
C           19.56052056317205       -3.22138071725829       -1.26643867702357
C           18.43143923262436       -2.74243423951410       -0.68370942292545
N           18.64911108561225       -1.44685222951745       -0.16463491839266
C           17.18173611845695       -3.49674907993113       -0.56820350987106
C           17.21272202014816       -4.97590989008739       -0.72641975057697
C           17.95275304651471       -5.75881880090162        0.16875407518561
C           18.00134013707272       -7.14221178500484        0.01558598478757
C           17.31729160236358       -7.75875856532411       -1.03098947765378
C           16.57089989391886       -6.99129674023837       -1.94633153894236
C           15.84465025541433       -7.65835470195697       -3.06706913391664
O           15.11896266982633       -6.88022738863584       -3.94680253888750
O           15.88953587806651       -8.87738016949793       -3.20515867597177
C           16.52908778344010       -5.59830594824993       -1.78130676265879
C           16.00423440815194       -2.87818864657757       -0.31540374259654
C           14.71019329502804       -3.52101690403488       -0.13762941137913
C           13.82564447441951       -2.53510978384786        0.03087847176891
C           14.55560653724868       -1.27558056381896       -0.02671090570222
N           15.84146804579309       -1.47124658057646       -0.22345046095922
H           12.83683221710522        0.04664288256436        0.06152668410686
H           12.84355812635511        2.67325925084374        0.19718917497323
H           14.64962001865750        4.48087036772425        0.43373749591684
H           16.47338242880230        4.80520096228438        2.67120335360437
H           16.11195054216945        9.25146817580191        4.30729851485637
H           17.52525512782253        8.70891318445393        1.16114869363840
H           18.39222561570680        7.67171880375076       -0.89261520923975
H           18.30821561943345        5.22377729167502       -1.19385239320104
H           20.06953198577114        4.29357448101046        1.26119004426122
H           21.90459198790306        2.50559244740008        0.98530311498853
H           21.60385302528551       -2.30039655324803       -1.43673293518647
H           19.66723325164940       -4.18399969848264       -1.73888045652792
H           18.48939561159388       -5.29097376188150        0.98786201267402
H           18.57711587961838       -7.74110905526815        0.71465689239339
H           17.37256361790363       -8.83808495011193       -1.12746944255709
H           14.62674241293299       -7.31277477908306       -4.70251437552147
H           15.96932839436721       -4.98909109718183       -2.48249176005692
H           14.47805464555392       -4.57753822190562       -0.13656604061433
H           12.76688144810704       -2.66484012005133        0.18673581292017
Fe          27.67282271570705        0.10800462072247        0.02184050591672
C           31.02180019096676       -0.04094519699662        0.06004651043082
C           30.36556337292712       -1.18687132366618       -0.22733251934984
C           31.03499369063605       -2.42875434100292       -0.58188042855121
C           30.09423660278351       -3.35260174988045       -0.76858391682372
C           28.79315838935943       -2.72493914101934       -0.52574096605416
N           28.96599649077067       -1.35997884644394       -0.19893600920616
C           27.59296888990027       -3.37259408286135       -0.58868867978473
C           27.56667505706663       -4.82436964417226       -0.90216752217828
C           28.05801947558486       -5.76360405855856        0.01565203568105
C           28.01350827727418       -7.14185470017297       -0.27154836754801
C           28.54075912619177       -8.13109008658373        0.71386508878362
O           28.48115802416304       -9.47529492485593        0.40418073704644
O           29.02047221205001       -7.75861541580133        1.78076917442000
C           27.46560324652499       -7.55776859777948       -1.49431869792236
C           26.97406320924081       -6.62554364348924       -2.40533661467277
C           27.02128044807086       -5.26477800883854       -2.11413768638355
C           26.31911962442885       -2.71154168910342       -0.35271003403084
C           25.04398723931470       -3.40753464736491       -0.19718143107842
C           24.09441768759023       -2.48178209682285       -0.02629048595744
N           26.16457907991921       -1.40720687906899       -0.27008069240446
C           24.81044770334750       -1.22099404310434       -0.07307698626500
C           24.28554438909019        0.01363570635545        0.00162216521804
C           24.94819682530659        1.27970321743485       -0.03288414290055
C           24.36692028882973        2.46836694743028       -0.32236000370992
C           25.38237037185134        3.45828319197332       -0.14641352156657
C           26.51145171608833        2.81545576760738        0.24821968746637
N           26.29377991609336        1.42142014165585        0.31630832169981
C           27.76115481452957        3.49083825153433        0.60345293202051
C           27.73016895790046        4.94070684203346        0.93636660701453
C           26.99013796408197        5.38880534946086        2.03795198282963
C           26.94155090451342        6.74649667660552        2.34440052665133
C           27.62559936097425        7.67069760820050        1.55617184013077
C           28.37199110929550        7.24377928412678        0.44056044113977
C           29.09824073100782        8.23991950726746       -0.40129762519997
O           29.82392829068676        7.79130469439787       -1.48672770541335
O           29.05335509059938        9.43731483504651       -0.13420980076617
C           28.41380319371333        5.87314757039628        0.14218975487995
C           28.93865591025108        2.82364996312947        0.64066250780038
C           30.23269764421822        3.37333358321195        1.01839296601700
C           31.11724642966126        2.38638449298617        0.85609947296879
C           30.38728379099424        1.21452780094640        0.39082265738341
N           29.10142290089483        1.46366500320887        0.26866563771731
H           32.10605874553536       -0.06416105909900        0.04294750114731
H           32.09933200054572       -2.59137032640467       -0.68556694255348
H           30.29327091313526       -4.37727461265736       -1.05156782185781
H           28.46950856555386       -5.41368934280868        0.95773232494223
H           28.83094042613896      -10.15044124708690        1.05404858976506
H           27.41763585926332       -8.61134125633883       -1.74305575131695
H           26.55066536811349       -6.96097109864765       -3.34617760055186
H           26.63467546925300       -4.54865774079686       -2.83246319604473
H           24.87335802171491       -4.47012263527087       -0.20827861351288
H           23.03829813832243       -2.68994279635230        0.11413279069102
H           23.33903801660947        2.64321750463972       -0.60780381049092
H           25.27565770073201        4.52235531433920       -0.27902654928179
H           26.45349534774024        4.67936939934746        2.65965681260064
H           26.36577516558286        7.08461379297336        3.20058685301469
H           27.57032737146710        8.72246211672046        1.81702699420091
H           30.31614860413232        8.44669449757937       -2.06001762224554
H           28.97356271123461        5.52596728392928       -0.71935989928391
H           30.46483634244974        4.37172308649656        1.36401721184802
H           32.17600950926835        2.45818111970390        1.04574811098815
C           21.90707386665909       -0.00629703844154       -0.00208571081174
C           23.03581711284581        0.00663292614382        0.00008235537924
126
 energy: -237.527786341348 gnorm: 0.216358775872 xtb: 6.5.1 (b24c23e)
Fe          17.27166027657359       -0.08342475508800       -0.01046220611526
C           13.92351029344416        0.00243961719702        0.06961396942161
C           14.58240572550822        1.19393572448438        0.17053304529983
C           13.91125770106993        2.47593124052450        0.24071097032168
C           14.86009436780610        3.41704234605239        0.36719336469866
C           16.14798088473492        2.74101717941873        0.39001350923666
N           15.96180528299717        1.36198289249353        0.25075668358511
C           17.35447881599816        3.38572683581658        0.54969847450814
C           17.37746026849568        4.86236549687323        0.72867505731625
C           16.88352694431790        5.45448598157189        1.89531606020332
C           16.92929944174707        6.84900470452177        2.07276373189926
C           16.39581639365867        7.44944359979205        3.33958387647354
O           16.46934987321604        8.80600726085412        3.45251778304040
O           15.92445492593665        6.76662428545568        4.21185240943589
C           17.47712445838001        7.63402153684748        1.05304224846966
C           17.96642735664904        7.04799667627343       -0.10782456881917
C           17.92185907788884        5.66998457177107       -0.27414389217142
C           18.59921565738073        2.71106207205672        0.55812589654166
C           19.87486494562455        3.30237358581648        0.92152680970145
C           20.81873328404581        2.34748399141513        0.78180458786802
N           18.74485315582934        1.42936794404262        0.22643959586513
C           20.07502587560899        1.18823262621056        0.33727329097896
C           20.56628073897992       -0.02744587800415       -0.00998418943099
C           19.94162268693619       -1.20435236308658       -0.44562003263472
C           20.56092295727802       -2.24959259810328       -1.10957023117742
C           19.57458852046466       -3.23046263328894       -1.26288296442297
C           18.41509749369088       -2.74822625513505       -0.67768985644731
N           18.61355597882469       -1.45649544146710       -0.19404740065211
C           17.19185604672530       -3.49081574320651       -0.56854635578467
C           17.22109389193859       -4.97182601343246       -0.73454916338438
C           17.95309770901831       -5.75856521783181        0.16066931943445
C           17.99428182917896       -7.13937595690370        0.00695782556501
C           17.31156750294834       -7.75270869232211       -1.03786500665036
C           16.56596876319252       -6.98381316888000       -1.95022451907972
C           15.84232865706914       -7.67023744554747       -3.07185915822519
O           15.13505286540678       -6.87494243743629       -3.92330981200693
O           15.88413270646687       -8.86542187809299       -3.21080586295349
C           16.52887984986010       -5.59515854722267       -1.78013020400184
C           16.00405128903300       -2.87098503950906       -0.31184496190979
C           14.71730448081976       -3.51153880884559       -0.13884954823560
C           13.81866008891087       -2.52155278248944        0.02889413201158
C           14.54108337911616       -1.26683689485700       -0.02529195894285
N           15.84675288059241       -1.47469551465209       -0.20882449012124
H           12.83904443516887        0.03641853563986        0.06365350871235
H           12.84644846374614        2.65743135010003        0.19616653757506
H           14.66913235111018        4.47890250902370        0.43534735823730
H           16.47353566348473        4.81530074594925        2.67255754018489
H           16.12020762420086        9.20629414167733        4.28070885833481
H           17.52402771205253        8.71053654166105        1.16436411621890
H           18.39020891847162        7.67052207511369       -0.88967108677381
H           18.30572203417011        5.22348813704906       -1.18741634219914
H           20.05501127730791        4.30647692443298        1.26038917962203
H           21.87995616466494        2.48126944775380        0.97918160545870
H           21.59028390001878       -2.30023136004717       -1.43891751182613
H           19.67611331177553       -4.18796823863365       -1.74269147524612
H           18.48701201687751       -5.29094585612950        0.98284209661691
H           18.57075686367440       -7.73899159073869        0.70754906026414
H           17.36584193967444       -8.83303919640151       -1.13627455162023
H           14.65815652158145       -7.31963761998477       -4.66018943909904
H           15.96920448952838       -4.98830399928283       -2.48269656745033
H           14.49502582660772       -4.57048920402096       -0.13895175220128
H           12.76116940375461       -2.65165077186385        0.18699696129681
Fe          27.67123065044139        0.08227469343003        0.01732175136743
C           31.01938056525650       -0.02501318252518        0.06501060768208
C           30.36048509247218       -1.18426043168954       -0.22823530592885
C           31.03163274722215       -2.41903046505704       -0.58006022993170
C           30.08279618183012       -3.34992524306587       -0.76747030940350
C           28.79490950410589       -2.71831758041908       -0.52539045411256
N           28.98108530217448       -1.36928372996806       -0.20721334978497
C           27.58841196174726       -3.37985251253320       -0.58473230771014
C           27.56543041996137       -4.83410776205519       -0.89719829350176
C           28.05936331315071       -5.77438171317312        0.01249573602460
C           28.01359052947017       -7.15050975544342       -0.27462948155753
C           28.54707403976079       -8.13132357153738        0.72705105240051
O           28.47354102703446       -9.45052920824489        0.39132023258232
O           29.01843596463472       -7.77036866007321        1.77433601193914
C           27.46576580184175       -7.55997625145851       -1.49463822355819
C           26.97646344447374       -6.62734823930639       -2.40086222848889
C           27.02103174714717       -5.27045360004095       -2.10860110510207
C           26.34367500224313       -2.74483621714777       -0.35670137284113
C           25.06802574412874       -3.42234194629495       -0.20605219069715
C           24.12415707348920       -2.47410365153276       -0.02666346774154
N           26.19803732889666       -1.42505199636702       -0.25217982087800
C           24.86786472697222       -1.23325727951662       -0.06875382072053
C           24.37661014610061        0.02920135104960       -0.00048559720445
C           25.00126836787954        1.28383565100560       -0.02840847452006
C           24.38196804242803        2.48847726670970       -0.31510540558357
C           25.36830250052176        3.46570841851124       -0.14009003410456
C           26.52779344148837        2.81896737937617        0.25579949038105
N           26.32933523693433        1.44012953747190        0.29164966147959
C           27.75103487300294        3.48534145800430        0.60119347884984
C           27.72179709442317        4.93949788404104        0.92734981696557
C           26.98979328171559        5.39120280706418        2.03022669602660
C           26.94860921816797        6.74663041599100        2.33531906323724
C           27.63132349825886        7.66722124173330        1.54769921831746
C           28.37692223612466        7.23797503886607        0.43443931842267
C           29.10056227824175        8.25271472069079       -0.40194979634161
O           29.80783804328970        7.77864569597538       -1.46624362335899
O           29.05875821012166        9.42785259634132       -0.14344858770568
C           28.41401115326179        5.86978861746341        0.14227539571492
C           28.93883933364770        2.81567970597244        0.64167681548563
C           30.22558636011596        3.36477163416681        1.01414806293092
C           31.12423072643033        2.37421605406082        0.84980140674719
C           30.40180721683388        1.20579925155453        0.38931187213836
N           29.09613801162756        1.46215439265003        0.28361692481193
H           32.10384644276338       -0.05518955786076        0.04829297814585
H           32.09644184158946       -2.57607446108150       -0.68137081770613
H           30.27375843015666       -4.37593947343184       -1.04940414881971
H           28.46935527121857       -5.42367839850009        0.95571823135376
H           28.82268331979370      -10.09906479737349        1.04364816353541
H           27.41886320545143       -8.61392449211721       -1.74054559807575
H           26.55268204671333       -6.96080023585394       -3.34300425931738
H           26.63716909801474       -4.55048382978006       -2.82628470231930
H           24.88787878067446       -4.48205845022049       -0.21324430104799
H           23.06293416986770       -2.66495329633839        0.11627978952427
H           23.35260721818593        2.64377386521370       -0.60992270134928
H           25.26677764054535        4.52735003959071       -0.28133466673566
H           26.45587890279522        4.68098038624827        2.65490247546467
H           26.37213426794899        7.08493055285420        3.19317698263971
H           27.57704902698952        8.72056436618630        1.80705757491171
H           30.28473447751268        8.43937634071435       -2.01776901342396
H           28.97368671921310        5.52528998380843       -0.71981048344175
H           30.44786510388995        4.36583783829505        1.35946275356683
H           32.18172145411099        2.44562791991726        1.04169279363569
C           21.86457321903951       -0.01690981536037       -0.00646287663641
C           23.07831768337773        0.01809302495369       -0.00059366142966
126
 energy: -237.575718277408 gnorm: 0.090669669225 xtb: 6.5.1 (b24c23e)
Fe          17.26838756158335       -0.05431615185347       -0.00387480637996
C           13.92614242503022       -0.01017787072042        0.06974165412473