189
 energy: -334.380680501166 gnorm: 1.486027032457 xtb: 6.5.1 (b24c23e)
Zn          25.02594500000000        0.02730600000000       -0.02050000000000
C           21.69566000000000       -0.12342500000000       -0.17029600000000
C           22.36178200000000       -1.28048700000000       -0.13711900000000
C           21.71269200000000       -2.58577400000000       -0.12578100000000
C           22.65242600000000       -3.50609400000000       -0.02255600000000
C           23.95700200000000       -2.83095000000000        0.03016000000000
N           23.77921500000000       -1.41592900000000       -0.04556900000000
C           25.14569000000000       -3.45135200000000        0.17787700000000
C           25.18066400000000       -4.92642600000000        0.29087700000000
C           24.98804600000000       -5.72756800000000       -0.84515500000000
C           25.01380100000000       -7.12089000000000       -0.73444600000000
C           25.23656000000000       -7.72385600000000        0.51143300000000
O           25.26235600000000       -9.11092200000000        0.63407300000000
C           25.43386000000000       -6.92631600000000        1.64410100000000
C           25.40466700000000       -5.53270300000000        1.53639600000000
C           26.44111500000000       -2.72272200000000        0.24101400000000
C           27.73510500000000       -3.37821000000000        0.46804400000000
C           28.67022600000000       -2.45194400000000        0.42481900000000
N           26.58061000000000       -1.44431600000000        0.05845700000000
C           27.98309300000000       -1.19331900000000        0.16242900000000
C           28.57985700000000       -0.00238600000000       -0.01663000000000
C           27.82467000000000        1.24294100000000       -0.29365800000000
C           28.38118900000000        2.36997100000000       -0.71822700000000
C           27.33683400000000        3.37214600000000       -0.78125000000000
C           26.20869799999999        2.79382100000000       -0.38916300000000
N           26.42526200000000        1.41880600000000       -0.06370200000000
C           24.91104900000000        3.50519400000000       -0.25571100000000
C           24.92030600000000        4.98665000000000       -0.20555000000000
C           25.53530800000000        5.64870500000000        0.86898000000000
C           25.55308900000000        7.04536000000000        0.91854000000000
C           24.96594100000000        7.79201300000000       -0.10704200000000
O           24.98558100000000        9.18274500000000       -0.04067500000000
C           24.36490000000000        7.13505300000000       -1.19078700000000
C           24.34342600000000        5.73864200000000       -1.24079300000000
C           23.74244100000000        2.84212000000000       -0.16964900000000
C           22.41991000000000        3.44386200000000       -0.00809700000000
C           21.56035300000000        2.44404400000000        0.00337800000000
C           22.32417400000000        1.20617200000000       -0.13702900000000
N           23.59752400000000        1.42519000000000       -0.23932700000000
H           20.61250000000000       -0.15587500000000       -0.19667400000000
H           20.64929800000000       -2.78202500000000       -0.17492400000000
H           22.46449800000000       -4.57092600000000        0.02511500000000
H           24.81494900000000       -5.27206100000000       -1.81268400000000
H           24.86026100000000       -7.73040700000000       -1.61598000000000
H           25.11649900000000       -9.71576200000000       -0.16639600000000
H           25.60788900000000       -7.38725100000000        2.60849500000000
H           25.55668700000000       -4.92611100000000        2.42091800000000
H           27.91560500000000       -4.43210500000000        0.63495800000000
H           29.73090600000000       -2.62629500000000        0.55039700000000
H           29.42420500000000        2.53080500000000       -0.95434600000000
H           27.46382900000000        4.40491100000000       -1.07729200000000
H           25.99145700000000        5.08251400000000        1.67098500000000
H           26.01883700000000        7.54798000000000        1.75768800000000
H           24.56222900000000        9.75215600000000       -0.76505100000000
H           23.91599200000000        7.70538000000000       -1.99372300000000
H           23.88046100000000        5.24246400000000       -2.08613900000000
H           22.16741500000000        4.49139100000000        0.08894700000000
H           20.48737700000000        2.53766600000000        0.10927300000000
Zn          64.15179400000000       -0.03232600000000       -0.01619900000000
C           67.48207900000000        0.09535300000000       -0.18607200000000
C           66.81595700000000        1.24520500000000       -0.31924700000000
C           67.46504700000000        2.53861400000000       -0.49530200000000
C           66.52531200000000        3.46422200000000       -0.52518700000000
C           65.22073700000000        2.80362700000000       -0.37615100000000
N           65.39852399999999        1.39238000000000       -0.24807700000000
C           64.03204900000000        3.43880400000000       -0.31897400000000
C           63.99707400000000        4.91482900000000       -0.41877900000000
C           64.18969300000001        5.54469100000000       -1.65800100000000
C           64.16393700000000        6.93948100000000       -1.74834400000000
C           63.94117899999999        7.71496100000000       -0.60186500000000
O           63.91538299999999        9.10527200000000       -0.67950300000000
C           63.74387800000000        7.08818200000000        0.63351100000000
C           63.77307100000000        5.69353400000000        0.72686900000000
C           62.73662400000000        2.72677000000000       -0.15195100000000
C           61.44263399999999        3.40804900000000       -0.02131500000000
C           60.50751300000000        2.48516600000000        0.06880200000000
N           62.59712900000000        1.43539900000000       -0.14920000000000
C           61.19464600000000        1.20191500000000       -0.01029300000000
C           60.59788200000000       -0.00238600000000       -0.01663000000000
C           61.35306899999999       -1.27457500000000       -0.11211900000000
C           60.79654899999999       -2.45086000000000       -0.37059500000000
C           61.84090500000000       -3.45170900000000       -0.28918000000000
C           62.96904000000000       -2.82311300000000        0.01587600000000
N           62.75247700000000       -1.41562900000000        0.14069000000000
C           64.26668900000000       -3.50797900000000        0.25001100000000
C           64.25743199999999       -4.96691100000000        0.51220400000000
C           63.64243100000000       -5.46794800000000        1.67060500000000
C           63.62464899999999       -6.84304300000000        1.92003700000000
C           64.21179700000000       -7.72911700000000        1.01219100000000
O           64.19215699999999       -9.09593800000000        1.27740600000000
C           64.81283900000000       -7.23444300000000       -0.15459800000000
C           64.83431200000000       -5.85965400000000       -0.40443700000000
C           65.43529700000001       -2.83941700000000        0.24004800000000
C           66.75782800000000       -3.41175500000000        0.48626400000000
C           67.61738600000000       -2.42063500000000        0.35417100000000
C           66.85356400000001       -1.21571500000000        0.03761400000000
N           65.58021500000000       -1.44714400000000       -0.03220200000000
H           68.56523799999999        0.12368300000000       -0.21683300000000
H           68.52844100000000        2.72578300000000       -0.57209400000000
H           66.71324000000000        4.52487700000000       -0.63078700000000
H           64.36279000000000        4.95508000000000       -2.55016600000000
H           64.31747700000000        7.41621500000000       -2.70820700000000
H           64.06123900000000        9.58900800000000       -1.55846800000000
H           63.56985000000000        7.68271400000000        1.52179500000000
H           63.62105100000000        5.22012400000000        1.68927000000000
H           61.26213300000000        4.47498900000000       -0.00733500000000
H           59.44683200000000        2.67572900000000        0.16806600000000
H           59.75353300000000       -2.64390700000000       -0.58119500000000
H           61.71390999999999       -4.51626300000000       -0.43398400000000
H           63.18628199999999       -4.79254800000000        2.38307900000000
H           63.15890099999999       -7.22006700000000        2.82261700000000
H           64.61550900000000       -9.76338700000000        0.64222000000000
H           65.26174700000000       -7.91407000000000       -0.86740000000000
H           65.29727800000001       -5.48989500000000       -1.31222500000000
H           67.01032300000000       -4.43452300000000        0.73259700000000
H           68.69036199999999       -2.49809500000000        0.47240300000000
C           31.02543300000000        0.01183900000000       -0.00668000000000
C           32.48365900000000       -0.00999700000000       -0.02455300000000
C           33.61758700000000       -0.03075100000000       -0.02604400000000
C           34.97896900000000       -0.04334100000000       -0.02823500000000
C           36.25318799999999       -0.03303400000000       -0.03300000000000
C           37.44165000000000       -0.01423600000000       -0.03915600000000
C           38.79401099999999        0.01054800000000       -0.02328800000000
C           39.89427800000000        0.01183900000000       -0.00668000000000
C           49.16334599999999        0.01183900000000       -0.00668000000000
C           50.62157200000000       -0.00999700000000       -0.02455300000000
C           51.75550000000000       -0.03075100000000       -0.02604400000000
C           53.11688200000000       -0.04334100000000       -0.02823500000000
C           54.39110100000000       -0.03303400000000       -0.03300000000000
C           55.57956300000000       -0.01423600000000       -0.03915600000000
C           56.93192400000000        0.01054800000000       -0.02328800000000
C           58.03219100000000        0.01183900000000       -0.00668000000000
Zn          44.56272000000000        0.02057600000000       -0.03818400000000
C           41.14112600000000        0.00153300000000        0.03571900000000
C           41.79806700000000        0.98191100000000        0.68334100000000
C           41.15864900000000        2.03613400000000        1.47382500000000
C           42.09838800000000        2.84252900000000        1.92701500000000
C           43.39522400000000        2.35287600000000        1.45236300000000
N           43.21515399999999        1.17167100000000        0.66746400000000
C           44.57984800000000        2.94837500000000        1.70001300000000
C           44.61061999999999        4.20671000000000        2.47462900000000
C           44.91292099999999        4.18254800000000        3.84774600000000
C           44.95543200000000        5.37573000000000        4.57685200000000
C           44.70402100000000        6.59871900000000        3.93835100000000
O           44.75304799999999        7.78034500000000        4.67533800000000
C           44.40532500000000        6.62416800000000        2.56504400000000
C           44.35858300000000        5.43229700000000        1.83552100000000
C           45.87857900000000        2.40817900000000        1.22856600000000
C           47.14859900000000        3.13873800000000        1.32290600000000
C           48.10211100000000        2.34969900000000        0.87049800000000
N           46.04626300000000        1.21847800000000        0.73935500000000
C           47.44671000000000        1.10614800000000        0.48502700000000
C           48.06281599999999        0.00153300000000        0.03571900000000
C           47.31342699999999       -1.21334800000000       -0.35224300000000
C           47.85256100000000       -2.41976900000000       -0.47744600000000
C           46.81903100000000       -3.29994700000000       -0.98803600000000
C           45.71980900000000       -2.56961700000000       -1.14329700000000
N           45.94160500000000       -1.21721200000000       -0.74672600000000
C           44.46157600000000       -3.06523700000000       -1.75355900000000
C           44.52441899999999       -4.26204200000000       -2.62785100000000
C           43.84729600000000       -5.44272300000000       -2.27374200000000
C           43.91342800000000       -6.56741400000000       -3.10296200000000
C           44.65699100000000       -6.52336800000000       -4.29109900000000
O           44.72591100000000       -7.63520600000000       -5.12742400000000
C           45.33805000000000       -5.35218700000000       -4.64166600000000
C           45.27702800000000       -4.22708400000000       -3.81244300000000
C           43.28633400000000       -2.43451900000000       -1.55985000000000
C           42.00948600000000       -2.78921500000000       -2.17458400000000
C           41.12122000000000       -1.94776600000000       -1.68627600000000
C           41.81895000000000       -1.04739600000000       -0.76033400000000
N           43.08500399999999       -1.32403000000000       -0.68423600000000
H           40.10245400000000        2.16171700000000        1.66911800000000
H           41.91633100000000        3.71291900000000        2.54519900000000
H           45.11211299999999        3.24199400000000        4.35107600000000
H           45.18574700000000        5.35073200000000        5.63727100000000
H           44.56550300000000        8.68178500000000        4.23915300000000
H           44.21192400000000        7.56570600000000        2.06259100000000
H           44.13127599999999        5.46255000000000        0.77480600000000
H           47.29744500000000        4.14426300000000        1.69620700000000
H           49.15290599999999        2.60208000000000        0.81337000000000
H           48.87939300000000       -2.69455700000000       -0.27348100000000
H           46.93701900000000       -4.34718400000000       -1.23534500000000
H           43.27111200000000       -5.48957400000000       -1.35690100000000
H           43.38590700000000       -7.47101300000000       -2.82194300000000
H           44.25874100000000       -8.50361600000000       -4.89167200000000
H           45.91532800000000       -5.31366200000000       -5.55696900000000
H           45.80760400000000       -3.32644800000000       -4.09757100000000
H           41.80566200000000       -3.57082500000000       -2.89596500000000
H           40.07063399999999       -1.93687900000000       -1.94645600000000
189
 energy: -334.829050188279 gnorm: 0.572420856144 xtb: 6.5.1 (b24c23e)
Zn          25.02936039688901        0.02601688433931       -0.02164313747097
C           21.69606080725930       -0.10928339829372       -0.17010518672597
C           22.36725087200325       -1.28241841722070       -0.13647425314784
C           21.71163472482217       -2.58067037461246       -0.12604923919797
C           22.66002652835786       -3.50834417267755       -0.02201101109005
C           23.95522423145265       -2.82568914504379        0.02972545515089
N           23.76282166161808       -1.43241232282649       -0.04638723127484
C           25.15857706908360       -3.44764825323884        0.17889846698451
C           25.18344205674703       -4.92850690415547        0.29108260604837
C           24.98809581378103       -5.73006062471817       -0.84113771034484
C           25.01383134568134       -7.11985569418671       -0.73308387843486
C           25.23570951671075       -7.72887899037303        0.50688395130081
O           25.26217447564382       -9.10926842573921        0.63329218179514
C           25.43316029725025       -6.92849687093174        1.64079241656085
C           25.40504520828773       -5.53768658532332        1.53255918985473
C           26.43629676618488       -2.73610604391385        0.24208314230146
C           27.72585908047728       -3.38670873130309        0.46793606931698
C           28.67149237204648       -2.44694375558621        0.42432916209250
N           26.59178688715405       -1.44307673726615        0.05970149077436
C           27.99250952945511       -1.19105181745923        0.16253107349979
C           28.57651402547029        0.00917642989648       -0.02062641806537
C           27.82386839311613        1.23064839062451       -0.28621887151464
C           28.38364135609537        2.38902175678238       -0.72303708961749
C           27.35579570859942        3.37383622504360       -0.78355056156617
C           26.19934131660001        2.78402463800079       -0.38156706795362
N           26.43305303833695        1.42390379739573       -0.06618787834736
C           24.92194333940061        3.49856247540089       -0.25556505877877
C           24.92518188742287        4.98604963079415       -0.20746112848537
C           25.53417659018745        5.65269536592701        0.86506707174385
C           25.55094621084153        7.04679107126492        0.91583866086790
C           24.96336261836255        7.79696217953326       -0.11138754257385
O           24.98509301020416        9.18084815093984       -0.04157351721853
C           24.36540023948286        7.13382662841846       -1.18935532457497
C           24.34452277414481        5.74058153240112       -1.23704708682542
C           23.74046219610612        2.84129580081431       -0.16907423745788
C           22.42592716498584        3.44451464366754       -0.00891003207974
C           21.55272978031925        2.43524284804224        0.00299988595869
C           22.30831158817042        1.19898922889714       -0.13724404506633
N           23.59614303162385        1.43552766646737       -0.23691436383989
H           20.61280858812341       -0.15256926738587       -0.19643324911693
H           20.64930351453131       -2.77711137004806       -0.17534796804429
H           22.47059129244501       -4.57149983827544        0.02537959061470
H           24.81544837111518       -5.27229864620652       -1.81081636560501
H           24.86038727086435       -7.73046040522595       -1.61564363285354
H           25.11805650294830       -9.69818249642133       -0.15812673213800
H           25.60756757196407       -7.38800822534277        2.60731871452927
H           25.55630785101089       -4.92744515605105        2.41892193690758
H           27.91076205598434       -4.43505642429543        0.63493916628727
H           29.73083401851148       -2.62034999037281        0.54957044817700
H           29.42519861096729        2.53401410657900       -0.95561957091980
H           27.46721844690010        4.40511569985529       -1.07839547631731
H           25.99067831208367        5.08347306783075        1.66933674289325
H           26.01818905967747        7.54841671357146        1.75646122905308
H           24.56705452073631        9.73505603504552       -0.75725670917168
H           23.91615771360462        7.70539955875488       -1.99342777223811
H           23.88148817014524        5.24281642913622       -2.08445174182399
H           22.17307977609369        4.49123708007567        0.08843404434833
H           20.48494455894671        2.53355132928355        0.10910808400012
Zn          64.14832262371409       -0.03120447543623       -0.01751516254314
C           67.48168604917520        0.08137283379972       -0.18385335625570
C           66.81046955810822        1.24720551539766       -0.31888452087513
C           67.46610214438211        2.53352412313584       -0.49483426501810
C           66.51771548219682        3.46653288189449       -0.52497483614295
C           65.22250434088195        2.79839616254332       -0.37582618447031
N           65.41493853450361        1.40856104690455       -0.25125011074247
C           64.01924772526783        3.43531096794720       -0.31743001352279
C           63.99431047408417        4.91691253999460       -0.41887451683458
C           64.18964025723071        5.54773436883950       -1.65437777449035
C           64.16390609305414        6.93865618357167       -1.74684651469193
C           63.94202990268308        7.71925756631212       -0.60708540736227
O           63.91556209356665        9.10356260195445       -0.68003595515867
C           63.74457646484343        7.08986645020153        0.62992191679891
C           63.77269573183673        5.69791255044943        0.72234956847554
C           62.74144512349790        2.74017360636006       -0.15281866976779
C           61.45192288463073        3.41645908237326       -0.02264826865945
C           60.50634385812726        2.48010289850860        0.06904115904320
N           62.58610395228624        1.43453053894947       -0.14786084026298
C           61.18544683357009        1.19961972493000       -0.00979593428413
C           60.60095785143012       -0.01392226217796       -0.01844059959741
C           61.35388713873272       -1.26109229650865       -0.10644303520801
C           60.79412803212963       -2.47031045976097       -0.37258631784235
C           61.82194221239860       -3.45370796427408       -0.29121857689916
C           62.97841207360974       -2.81233087657465        0.02198063244929
N           62.74470684928075       -1.42108304067919        0.13892798815626
C           64.25579305563028       -3.50139129664681        0.24919480725378
C           64.25256086486880       -4.96658453513392        0.51022921925750
C           63.64357192311572       -5.47245621799322        1.66730173102195
C           63.62679177618635       -6.84484905661258        1.91756730899588
C           64.21437425219339       -7.73461886270015        1.00859761687041
O           64.19264468409369       -9.09422278797654        1.27625575731111
C           64.81233760610448       -7.23302599613157       -0.15335427767205
C           64.83320725408097       -5.86103211780474       -0.40044773649811
C           65.43727900584412       -2.83852122036737        0.24049734027742
C           66.75180585441548       -3.41251884798588        0.48555650148087
C           67.62501202232754       -2.41197256313885        0.35253111565422
C           66.86943399644483       -1.20862615782049        0.03636745641048
N           65.58160319530786       -1.45703757161186       -0.02832629484851
H           68.56493647374896        0.12044432307525       -0.21611912763768
H           68.52843997273000        2.72085968992568       -0.57180866864615
H           66.70715287041256        4.52548980144853       -0.63060850269964
H           64.36229150650173        4.95558402756880       -2.54834967245018
H           64.31735121642826        7.41632227007619       -2.70788340455049
H           64.05968303589889        9.57279080789228       -1.54776795252846
H           63.57017112289687        7.68329838285265        1.52052262278582
H           63.62143022506817        5.22115824486496        1.68710080491492
H           61.26698402632606        4.47792486198640       -0.00777920574038
H           59.44701529085476        2.66980207702870        0.16811611250158
H           59.75261992120453       -2.64733333942341       -0.58201773635653
H           61.71051957687737       -4.51663339968776       -0.43504953251654
H           63.18706063599294       -4.79373366756757        2.38158285182522
H           63.15954804941504       -7.22067833215891        2.82146595827064
H           64.61068464787014       -9.74534161604349        0.64747483631970
H           65.26158210822949       -7.91405203588674       -0.86710406508686
H           65.29625089393183       -5.49000157800391       -1.31050222155223
H           67.00465976505954       -4.43444877110852        0.73206859054789
H           68.69280040748673       -2.49404760328686        0.47164948067918
C           31.04197923628630        0.01093143605950       -0.00594439130004
C           32.39270275418692       -0.00865531613712       -0.02500741326508
C           33.65757327070251       -0.03126214254474       -0.02604561110059
C           34.94511895848878       -0.04348447368767       -0.02799388802618
C           36.22397297067457       -0.03330113241340       -0.03321417699597
C           37.43834401326677       -0.01381720427461       -0.03980855445717
C           38.72360266341479        0.00949873529875       -0.02428311663612
C           39.91471933908747        0.00891417728109       -0.00893972489757
C           49.27162269375364        0.00173913919678       -0.01499033543690
C           50.57137038449983       -0.01012090415135       -0.02551711356742
C           51.80857576553363       -0.03142898518097       -0.02591310731958
C           53.09486664217127       -0.04346005427502       -0.02839447634708
C           54.37177697892282       -0.03324076413627       -0.03275251728485
C           55.59049137603046       -0.01383093868303       -0.03936679142520
C           56.91345431526619        0.01016779716736       -0.02431162909363
C           58.12816738601570        0.01129097087969       -0.00576472550757
Zn          44.56420817299100        0.01817290249534       -0.03760239552194
C           41.19832810155916       -0.00785099807351        0.02686183341780
C           41.82405133028295        0.99308437661860        0.69163687319656
C           41.15870533545189        2.02960341392366        1.46925932132204
C           42.10714075607982        2.84557763049392        1.92802555981560
C           43.39304429594237        2.35066888758591        1.45120782510167
N           43.20382324560541        1.18666465615597        0.68041399554110
C           44.59266299448365        2.94806840006777        1.69771964228009
C           44.61340414378243        4.20995393089214        2.47598624894358
C           44.91238445765996        4.18910935841227        3.84608337523425
C           44.95443574278962        5.37957919265278        4.57427533638982
C           44.70283836278572        6.60509004768410        3.93638015789525
O           44.75250921912922        7.77957557416998        4.67301295682191
C           44.40566182606165        6.62266069028370        2.56655032857350
C           44.35937633661571        5.43300212523974        1.84068723270572
C           45.87188348292219        2.42735931834572        1.23930116507785
C           47.13469973597358        3.14808376603863        1.32992222867853
C           48.09833748144757        2.34226709102092        0.86800948267978
N           46.05180981184805        1.22295153434637        0.73792821082684
C           47.41794540080143        1.12764125453570        0.49299575832328
C           48.00576466272816       -0.00985162613086        0.03339977381363
C           47.28611122817601       -1.21505318911930       -0.35699912917617
C           47.85146865485014       -2.43752667187037       -0.48299032149689
C           46.83527381059604       -3.30419618160520       -0.98737274009972
C           45.71040433685021       -2.56083629764177       -1.14806417507099
N           45.94236132023743       -1.22705531795617       -0.74731651904213
C           44.47138126124303       -3.06123577882618       -1.75092673116270
C           44.52794145128616       -4.26314151228085       -2.62583442101806
C           43.84890479751992       -5.44206488165809       -2.27814147441787
C           43.91406952918683       -6.56524352614985       -3.10308192709652
C           44.65439016348076       -6.52960070356875       -4.29050344923752
O           44.72550979350680       -7.63389248978276       -5.12551874455570
C           45.33576196602709       -5.35493277090428       -4.64009871079326
C           45.27560774568923       -4.23292406393205       -3.81165031132783
C           43.28527213785262       -2.43563348135231       -1.56111093307436
C           42.01580377363733       -2.79085372238115       -2.17381650994407
C           41.11441549031214       -1.93970851716459       -1.68038525761494
C           41.81929086094483       -1.04854120890316       -0.76197405680997
N           43.09017911598693       -1.33389006823923       -0.69408358710281
H           40.10233519230493        2.15571554254871        1.66511732278159
H           41.92209081214496        3.71360174732103        2.54498470473457
H           45.11152620927275        3.24474493154222        4.34919251877198
H           45.18522132354208        5.35215173803017        5.63550138783286
H           44.56755282844517        8.66146657737471        4.23904149234049
H           44.21216273182569        7.56510276684784        2.06361485200886
H           44.13187515882871        5.46180598209289        0.77743426067307
H           47.29258983568305        4.14721772269581        1.69808762059627
H           49.15099337098293        2.59476846660396        0.81059581364336
H           48.87874443055659       -2.69664031853570       -0.27332267466786
H           46.94022757759374       -4.34831954749440       -1.23394745759029
H           43.27248899426350       -5.48893723092290       -1.35840404554363
H           43.38637367250482       -7.47049052272404       -2.82212569797502
H           44.26356917955363       -8.48505239916521       -4.88805289522933
H           45.91445615564343       -5.31466172272570       -5.55639899207088
H           45.80649773694585       -3.32851773478716       -4.09676025432858
H           41.81103655933197       -3.57089547091464       -2.89468830971898
H           40.06842350814987       -1.93243147218186       -1.94303579474127
189
 energy: -334.981671668359 gnorm: 0.218894060837 xtb: 6.5.1 (b24c23e)
Zn          25.03631362489175        0.02247041650465       -0.02468426152884
C           21.69741483541379       -0.09213433241057       -0.16970760884784
C           22.37118117595904       -1.28430128124016       -0.13596335517428