116
 energy: -197.512885433919 gnorm: 1.401186374102 xtb: 6.5.1 (b24c23e)
C            7.79048400000000       -0.01616900000000       -0.01387000000000
C            8.51844000000000        1.35943800000000        0.08210600000000
C            7.91068500000000        2.59396300000000        0.06365600000000
C            8.93304400000000        3.56299600000000        0.23589500000000
C           10.13025500000000        2.88531900000000        0.36184100000000
N            9.87098200000000        1.54599900000000        0.21247900000000
C           11.55181200000000        3.52193200000000        0.65381600000000
C           11.58858600000000        4.93644800000000        1.08635800000000
C           11.87596000000000        5.94822300000000        0.17170400000000
C           11.88750400000000        7.25570700000000        0.62542100000000
N           11.63345200000000        7.62020800000000        1.90430700000000
C           11.35924800000000        6.61169700000000        2.76532200000000
C           11.32383200000000        5.27392500000000        2.41204700000000
C           12.68302200000000        2.77345200000000        0.55480300000000
C           13.98736200000000        3.31058300000000        0.88551000000000
C           14.89022700000000        2.35118600000000        0.71966800000000
N           12.87987800000000        1.46991700000000        0.18360700000000
C           14.21155200000000        1.15461800000000        0.26276800000000
C           14.87947500000000       -0.00020200000000        0.00005600000000
C           14.10001100000000       -1.27872000000000       -0.52407000000000
C           14.63456200000000       -2.31174900000000       -1.26873600000000
C           13.60909600000000       -3.26923600000000       -1.46928100000000
C           12.47489100000000       -2.78900600000000       -0.84996700000000
N           12.76866300000000       -1.55244700000000       -0.32573600000000
C           11.06898700000000       -3.51782800000000       -0.77261400000000
C           11.04447600000000       -4.98847300000000       -0.91691400000000
C           11.44109400000000       -5.80355200000000        0.14087400000000
C           11.41580600000000       -7.17506200000000       -0.04504100000000
N           11.03148600000000       -7.78178600000000       -1.19300000000000
C           10.65355000000000       -6.95981000000000       -2.19992600000000
C           10.64453700000000       -5.57838000000000       -2.11509600000000
C            9.94257700000000       -2.79035300000000       -0.55730100000000
C            8.62336400000000       -3.39008700000000       -0.45833600000000
C            7.73693600000000       -2.41879500000000       -0.26078100000000
C            8.45570300000000       -1.16935800000000       -0.21297700000000
N            9.77577700000000       -1.44464400000000       -0.38717900000000
H            6.71377500000000       -0.03023800000000        0.10609100000000
H            6.85243500000000        2.77583700000000       -0.04416600000000
H            8.80418600000000        4.63363800000000        0.28796800000000
H           10.57123600000000        0.80840400000000        0.20370800000000
H           12.08818900000000        5.70519400000000       -0.86387600000000
H           12.10997000000000        8.07178100000000       -0.05417700000000
H           11.16033800000000        6.91563100000000        3.78779900000000
H           11.09933400000000        4.50123500000000        3.13940500000000
H           14.20096300000000        4.30921200000000        1.22255600000000
H           15.94384500000000        2.46663900000000        0.89735400000000
H           15.65310500000000       -2.37872000000000       -1.61991700000000
H           13.69163700000000       -4.20540300000000       -2.00066600000000
H           12.08895300000000       -0.92119600000000        0.09046400000000
H           11.75836300000000       -5.36568000000000        1.08113600000000
H           11.71602700000000       -7.84364100000000        0.75515200000000
H           10.34566100000000       -7.45682000000000       -3.11396000000000
H           10.33190900000000       -4.96108700000000       -2.95055300000000
H            8.39458600000000       -4.43821500000000       -0.52783600000000
H            6.67487500000000       -2.53763900000000       -0.14483300000000
C           30.59626500000000        0.02037000000000       -0.00501000000000
C           29.86831000000000       -1.24643300000000       -0.54972900000000
C           30.47606400000000       -2.33541300000000       -1.13155000000000
C           29.45370500000000       -3.27571900000000       -1.42226100000000
C           28.25649400000000       -2.73098300000000       -0.99992100000000
N           28.51576800000000       -1.47198800000000       -0.51928000000000
C           26.83493700000000       -3.43062600000000       -1.03194200000000
C           26.79816400000000       -4.88616600000000       -1.29529200000000
C           26.51078900000000       -5.36666500000000       -2.57177200000000
C           26.49924499999999       -6.73675800000000       -2.76727500000000
N           26.75329800000000       -7.64651700000000       -1.79735500000000
C           27.02750199999999       -7.14435300000000       -0.57005200000000
C           27.06291800000000       -5.79333900000000       -0.27138800000000
C           25.70372800000000       -2.71991700000000       -0.77715200000000
C           24.39938800000000       -3.34886500000000       -0.72918000000000
C           23.49652200000000       -2.42005400000000       -0.43719500000000
N           25.50687200000000       -1.39113100000000       -0.51010000000000
C           24.17519800000000       -1.14710200000000       -0.29532100000000
C           23.50727500000000       -0.00020200000000        0.00005600000000
C           24.28673900000000        1.37638800000000        0.11970400000000
C           23.75218800000000        2.63576000000000       -0.06913300000000
C           24.77765399999999        3.57876800000000        0.19112700000000
C           25.91185900000000        2.86821900000000        0.52171800000000
N           25.61808700000000        1.52888000000000        0.42138100000000
C           27.31776300000000        3.48067600000000        0.92428500000000
C           27.34227400000000        4.85409400000000        1.46957400000000
C           26.94565500000000        5.09418500000000        2.78320500000000
C           26.97094400000000        6.39853800000000        3.24609500000000
N           27.35526399999999        7.46365600000000        2.50350200000000
C           27.73319900000000        7.19414100000000        1.23192600000000
C           27.74221300000000        5.92726600000000        0.67463100000000
C           28.44417200000000        2.73537300000000        0.78249900000000
C           29.76338600000000        3.22317900000000        1.14515600000000
C           30.64981300000000        2.26926900000000        0.87591500000000
C           29.93104700000000        1.13668800000000        0.34616100000000
N           28.61097300000000        1.46118900000000        0.31738700000000
H           31.67297400000000       -0.02206700000000        0.10807200000000
H           31.53431500000000       -2.44770600000000       -1.31069700000000
H           29.58256400000000       -4.25131600000000       -1.86633100000000
H           27.81551400000000       -0.81228600000000       -0.18925400000000
H           26.29856000000000       -4.67632300000000       -3.38104100000000
H           26.27678000000000       -7.15094600000000       -3.74517000000000
H           27.22641200000000       -7.88283500000000        0.19967400000000
H           27.28741600000000       -5.43959100000000        0.72909300000000
H           24.18578700000000       -4.39096400000000       -0.88694000000000
H           22.44290400000000       -2.60406600000000       -0.33212000000000
H           22.73364500000000        2.85613700000000       -0.35064300000000
H           24.69511200000000        4.65435000000000        0.14752300000000
H           26.29779700000000        0.77710700000000        0.50224500000000
H           26.62838700000000        4.27429300000000        3.41850200000000
H           26.67072300000000        6.62637800000000        4.26363900000000
H           28.04108900000000        8.05458900000000        0.64702900000000
H           28.05484100000000        5.76116900000000       -0.35077100000000
H           29.99216400000000        4.18674300000000        1.56342300000000
H           31.71187400000000        2.32181100000000        1.03341800000000
C           19.79721900000000        0.00090100000000        0.00854600000000
C           18.58827900000000       -0.01255500000000        0.00009800000000
C           17.16675000000000       -0.00373500000000       -0.01188500000000
C           15.95508100000000        0.00370400000000       -0.00102200000000
C           21.21382300000000       -0.00577500000000        0.00907900000000
C           22.43451900000000        0.00370400000000       -0.00102200000000
116
 energy: -197.864879664900 gnorm: 0.357363819060 xtb: 6.5.1 (b24c23e)
C            7.80790650927543        0.00934473139804       -0.01200031279613
C            8.51407676803439        1.34432965576032        0.08037619859804
C            7.91396307524258        2.59799508613648        0.06638651117397
C            8.93062066310402        3.56092986851319        0.23828892668083
C           10.14524711896598        2.88901864869781        0.36356743741197
N            9.87129308942347        1.54555833088208        0.21422656591531
C           11.52662334766008        3.50615617791034        0.64760405444693
C           11.58248038628756        4.92895777002087        1.08260545454463
C           11.87556607136741        5.94732435404287        0.17457520596428
C           11.88710409538060        7.25674468533393        0.62920915962889
N           11.63328690850504        7.60997018642787        1.90123310729329
C           11.36033106628737        6.61466322136840        2.76288074170577
C           11.32363657974950        5.27500336824643        2.40907426776789
C           12.68235687196056        2.77348803869457        0.55507140511411
C           13.98713544780646        3.31891505104336        0.88790657850838
C           14.89151287064339        2.35163184414197        0.72017361219238
N           12.86266228401795        1.46855527263011        0.18363171536864
C           14.16804586549765        1.17455211499086        0.26936917911897
C           14.77020050499555       -0.01805696432404       -0.01347492149797
C           14.08463779342935       -1.27540631313058       -0.52521024859738
C           14.63124807160284       -2.31504471537644       -1.26597009992263
C           13.61071868546060       -3.26903148678491       -1.46639115826131
C           12.45838048825471       -2.79577604886733       -0.84945386494496
N           12.76192181905765       -1.55735996535048       -0.32507409611855
C           11.09230905333820       -3.50066956533616       -0.77255441394610
C           11.05046914083523       -4.97980541307457       -0.91822733829356
C           11.44128965707080       -5.80356396619276        0.13769214441065
C           11.41441047767907       -7.17685011658759       -0.04824338343193
N           11.03161916150893       -7.77119795421780       -1.19189753317020
C           10.65421402270365       -6.96212143243301       -2.19690840792020
C           10.64477161764399       -5.57865139154385       -2.11214237700704
C            9.94041357053591       -2.78559183585359       -0.55514221962311
C            8.62172374983204       -3.39693610956828       -0.45918318241565
C            7.73197121074822       -2.42237305650628       -0.26048559354580
C            8.46099225712200       -1.17159531331106       -0.21237976087371
N            9.78377653836077       -1.43854830181199       -0.38656150027616
H            6.72242476525875       -0.02209179081391        0.10457941693520
H            6.85456683270489        2.77779340142759       -0.04387297710365
H            8.80312261601621        4.63224478435261        0.28777470467576
H           10.57054568699182        0.80933641993371        0.20393415645557
H           12.08766860197930        5.70651724030849       -0.86232388623624
H           12.10973454191820        8.07217581065877       -0.05329855095282
H           11.16056881857956        6.91645447454945        3.78727035307540
H           11.09942085546778        4.50325059367244        3.13876640985411
H           14.19922034960662        4.31471384549580        1.22384967490743
H           15.94709803124066        2.46172039129623        0.89633747583499
H           15.65121671892479       -2.37874319571663       -1.61881304059941
H           13.69311914707365       -4.20409517109896       -2.00000657313537
H           12.08846126803090       -0.92282990521496        0.09014219679529
H           11.75814736213915       -5.36727779840577        1.07981335762824
H           11.71568431199917       -7.84420860707523        0.75440885764902
H           10.34599421354639       -7.45751445560908       -3.11336537924821
H           10.33254921792888       -4.96289273947985       -2.94971810123552
H            8.39653539105864       -4.44356159422260       -0.52889010643350
H            6.67074447123773       -2.53665174641205       -0.14438823108929
C           30.57884739230036       -0.00315847960163       -0.01502908259723
C           29.87267064913056       -1.23221851876364       -0.54435146394170
C           30.47278583764632       -2.34024194755686       -1.13096909572491
C           29.45612068518299       -3.27498140993508       -1.41918727581961
C           28.24151012054113       -2.73506637538724       -1.00008427666160
N           28.51546062572710       -1.47239554276369       -0.51752201935056
C           26.86011060935118       -3.41375101951765       -1.03023056241622
C           26.80426757445359       -4.87778574102259       -1.29519756377587
C           26.51118360117162       -5.36717947704064       -2.56880820563450
C           26.49964571882226       -6.73941485537352       -2.76438259242285
N           26.75346304712597       -7.63600717826590       -1.79539820274049
C           27.02641888896705       -7.14587052256281       -0.57358123778607
C           27.06311326990155       -5.79293372176266       -0.27452432537082
C           25.70437785899283       -2.72011070569039       -0.77692747774391
C           24.39964237812566       -3.35740467853638       -0.73087652847496
C           23.49520264229210       -2.42071830577014       -0.43698788649582
N           25.52393370959386       -1.38988282482797       -0.50942905112890
C           24.21857017576813       -1.16813680981609       -0.29873448025926
C           23.61620207043452        0.02134958010290       -0.00341194612584
C           24.30238061366394        1.37401341923433        0.11709369873328
C           23.75555981869473        2.63737300101444       -0.06519819124855
C           24.77606533580534        3.57727052215775        0.19361286900122
C           25.92838045013661        2.87403998532012        0.52527827744789
N           25.62491860688437        1.53297919497962        0.42424907043975
C           27.29446524398217        3.46540661200188        0.91648663141866
C           27.33628431336854        4.84699226662466        1.46443963597544
C           26.94545885332849        5.09565384683192        2.78038285148016
C           26.97233896809004        6.40159427782703        3.24406757682841
N           27.35513095198914        7.45373947476144        2.49963259873435
C           27.73253494993110        7.19481329276765        1.23566691005552
C           27.74197865538987        5.92615528901320        0.67738162565958
C           28.44633608208616        2.73016006683335        0.78223671310706
C           29.76502812800470        3.22965583140535        1.14754027075900
C           30.65477787807970        2.27231551710609        0.87781677488722
C           29.92575953930013        1.13840277953490        0.34771588393276
N           28.60297087099385        1.45548351650389        0.31514186037144
H           31.66432593136115       -0.02861550515439        0.10299889496213
H           31.53218241235887       -2.44957843935077       -1.31133195293316
H           29.58362575114554       -4.24999000522633       -1.86586446740728
H           27.81620867270092       -0.81321668269743       -0.18947888688288
H           26.29908014995612       -4.67820998884803       -3.38026762144184
H           26.27701533697449       -7.15169878361765       -3.74456951319110
H           27.22618112047547       -7.88332403785853        0.19882669662718
H           27.28732902785976       -5.44109013126052        0.72760238953032
H           24.18753556320032       -4.39645946320064       -0.88831134962552
H           22.43963361088280       -2.59921958761282       -0.33077038323945
H           22.73555119047452        2.85562556747955       -0.34964630459042
H           24.69362905698250        4.65288669079633        0.14751467763381
H           26.29831712500920        0.77871288238602        0.50271709485660
H           26.62860268912132        4.27631929268693        3.41805824606005
H           26.67106570281397        6.62722298669246        4.26323866523011
H           28.04075575002521        8.05493413810207        0.64787558858776
H           28.05420091787025        5.76239176561451       -0.34920163651817
H           29.99021531247055        4.19197877251524        1.56493495611740
H           31.71600467676581        2.32072979486573        1.03336127761953
C           19.80486768643048        0.00033946603314        0.00884626883743
C           18.58090175268476       -0.01262345012389       -0.00002150694651
C           17.24149558212698       -0.00654830686423       -0.01229071325638
C           16.04516697667547       -0.01388441757644       -0.00219460462494
C           21.14281174607618       -0.00351520844825        0.00975563838944
C           22.34056410120743        0.02180887722750        0.00545615211428
116
 energy: -197.951185805150 gnorm: 0.172770961608 xtb: 6.5.1 (b24c23e)
C            7.85203111909732        0.04800911625078       -0.01020060320194
C            8.51898246938125        1.33018553012865        0.07918570822780
C            7.92365806180334        2.60225893192685        0.07656389497297
C            8.92912412816530        3.55495514446094        0.24824366649033
C           10.16162716539614        2.88824774921784        0.36591325545409
N            9.87688570427630        1.54366640138749        0.21715408230689
C           11.48135913963631        3.47893045219521        0.63682105808296
C           11.55555234391215        4.91176056260341        1.07134105510112
C           11.87009260548390        5.93909734865270        0.17737843393934
C           11.88801614692302        7.25055959452846        0.63240456061330
N           11.63313688819481        7.59309888451636        1.89605421288174
C           11.36251767548477        6.61165872858049        2.75775303310151
C           11.31742607293145        5.27133219788352        2.40023406379814
C           12.66806549371269        2.77039652932460        0.55740494990344
C           13.97745965662325        3.32615503192630        0.89030486638297
C           14.88357218555611        2.34831312842945        0.72155481699745
N           12.83112826666392        1.46358931859764        0.19155095738272
C           14.13310358858105        1.17691687161364        0.27340697755658
C           14.71683766408247       -0.04880256513283       -0.04835580340620
C           14.06434780304254       -1.26130990091407       -0.52688804980839
C           14.61977307960608       -2.32196774839929       -1.25354196198146
C           13.61093976594745       -3.27054780369741       -1.45236520730031
C           12.43544937239517       -2.80140091845563       -0.84726057123759
N           12.74440401332687       -1.56075432564248       -0.32662693536328
C           11.12755960530918       -3.46879139147568       -0.77168397341269
C           11.07290053001569       -4.95771169105448       -0.92390292676816
C           11.44673465946890       -5.79609241636221        0.13007678875941
C           11.41208236703382       -7.17166809648479       -0.05174382088095
N           11.03173539550647       -7.75328490108638       -1.19023542510769
C           10.65364123210823       -6.95717554678687       -2.19148063517822
C           10.64881532802123       -5.57144692077586       -2.10656731949186
C            9.94547109388260       -2.77598428958814       -0.54804955881270
C            8.62589758489810       -3.40288783565586       -0.46029448344220
C            7.73178228419102       -2.42208587216519       -0.25914045252249
C            8.47660525704050       -1.16876263591718       -0.20753570661764
N            9.79936928618775       -1.42968167982514       -0.38056846760260
H            6.76235928479283        0.01419612955325        0.09607642940039
H            6.86462351980869        2.78361958048567       -0.04150652451388
H            8.80048158856352        4.62661146120803        0.28867171662827
H           10.57454713157894        0.80884139831971        0.20444078097828
H           12.08490183803185        5.70753341393993       -0.85987408165334
H           12.10951946731821        8.06819726138930       -0.05011296780237
H           11.16265712499580        6.91528304686994        3.78301248313269
H           11.09726131315968        4.50636795655808        3.13666952257925
H           14.18764110336609        4.32654488491754        1.22439958603008
H           15.94518214277820        2.44563576765420        0.89100305098515
H           15.63905869193044       -2.38026116250036       -1.61226892715444
H           13.69714636500998       -4.20032687700266       -1.99482445801657
H           12.07659447049255       -0.92565260940298        0.08986010947179
H           11.75976714984693       -5.36901164402967        1.07646225599469
H           11.71309010208508       -7.84122001240994        0.75111963488219
H           10.34676423996333       -7.45483219696997       -3.10894021732872
H           10.33484259413476       -4.96451385129492       -2.94827554359291
H            8.40714027954195       -4.45402999256385       -0.53319770486970
H            6.66601407643096       -2.52975730395671       -0.14411642737647
C           30.53472080332160       -0.03836141836071       -0.03114493085587
C           29.86775404808056       -1.21909589108008       -0.53892894508226
C           30.46306739245444       -2.34870179741915       -1.12387466109518
C           29.45757230249567       -3.27422156089164       -1.40759205818942
C           28.22506047805192       -2.73542641914711       -0.99762898576506
N           28.50984952798854       -1.47203746699837       -0.51404769513517
C           26.90518287933999       -3.38444356211951       -1.02728295335164
C           26.83114293658472       -4.85724867975408       -1.29731588418994
C           26.51665017168868       -5.36111463438944       -2.56253490852692
C           26.49873839805993       -6.73535325947073       -2.75870178822306
N           26.75361429999967       -7.61861626548120       -1.79227244395553
C           27.02423526512800       -7.14081857963012       -0.57676739165061
C           27.06931375669166       -5.78557744050066       -0.28070876698062
C           25.71830600578264       -2.71826936263520       -0.77333920325281
C           24.40901409926953       -3.36490608440749       -0.73211056769009
C           23.50250729087659       -2.41852328360815       -0.43453205096965
N           25.55457378526773       -1.38903455630722       -0.49964050049853
C           24.25218727442636       -1.17198615207996       -0.29599878887028
C           23.66933366246601        0.06479826841782       -0.01845018100645
C           24.32331972021067        1.36196916793746        0.10931760056863
C           23.76738750288861        2.63756029780793       -0.05111463899626
C           24.77595679404878        3.57212338210541        0.20675132327138
C           25.95150330680464        2.87808065041479        0.52983441734597
N           25.64287281209107        1.53669136394949        0.42455099188091
C           27.25927840098284        3.43672153950653        0.90267453855234
C           27.31388354992367        4.82998027976818        1.44928549689019
C           26.94002020871541        5.09250969688787        2.77019394710050
C           26.97466548236424        6.39859893012035        3.23858351716465
N           27.35501548630836        7.43706219695258        2.49290627025762
C           27.73310651250598        7.18794377695793        1.23822479999265
C           27.73794260579187        5.91721567964328        0.67903672912024
C           28.44131693724520        2.71838370738810        0.78415231938748
C           29.76087903491900        3.23545837915046        1.14928175606559
C           30.65498278915123        2.27143969678672        0.87887923415485
C           29.91015325513453        1.13366898365911        0.35072395607835
N           28.58739195069686        1.44487327072387        0.31640931173102
H           31.62439128697829       -0.05698540352246        0.07881476262652
H           31.52210602004284       -2.45585134354402       -1.31190105670994
H           29.58624013887742       -4.24538453863576       -1.86248235375220
H           27.81220344695060       -0.81298588766965       -0.18879504822301
H           26.30184004214419       -4.68022306663482       -3.37855820407051
H           26.27723392120942       -7.14960489121019       -3.73990814364507
H           27.22409379366785       -7.88030934686601        0.19557342409982
H           27.28948379834632       -5.44288533015442        0.72431063908269
H           24.19907946907911       -4.40726375078165       -0.89325367498147
H           22.44109141810052       -2.58275027329186       -0.32821932370297
H           22.74796079608802        2.85372491549069       -0.34310526312477
H           24.68958091025606        4.64710345559847        0.15039202024808
H           26.31055681836680        0.78134811432193        0.50389068579571
H           26.62698677470470        4.27939920958334        3.41586929900604
H           26.67365833314234        6.62607692577204        4.25894667247398
H           28.03998520764671        8.05053321907382        0.65057864558816
H           28.05191008928797        5.76317954572999       -0.34717809177480
H           29.97962630663346        4.20326149067186        1.56590085644930
H           31.72074801322091        2.31447031327525        1.03044153808124
C           19.80522505963083       -0.00060163104322        0.01151538340217
C           18.58032082340099       -0.01537520224516       -0.00001976312320
C           17.26658786604895       -0.01688831077608       -0.01589719145572
C           16.04261613797191       -0.04918791730541       -0.01007510352172
C           21.11974312235082        0.00612054199991        0.00809155970163
C           22.34345616037847        0.06175107469735        0.01266666866218
116
 energy: -197.984047078002 gnorm: 0.064027098846 xtb: 6.5.1 (b24c23e)
C            7.90252537595347        0.08229000661292       -0.01006432365730
C            8.53482299072962        1.32100646173672        0.07928255300388
C            7.93645827242294        2.60878454283127        0.09171032745367
C            8.92543309222729        3.55005388761390        0.26283708763696
C           10.17649788058423        2.88702068721784        0.37074028321654
N            9.89057264326923        1.54393017734184        0.21448327451526
C           11.43752177574885        3.45500947754458        0.62973502173671
C           11.52369532480891        4.89568214935728        1.05867035333987
C           11.85701697392260        5.92647693140015        0.17563145119046
C           11.88748122788802        7.23885542018662        0.63146553946386
N           11.63334486310655        7.57507621743286        1.89018987007827
C           11.36217098157866        6.60275312099527        2.75186997460010
C           11.30360447402195        5.26322737579342        2.38889707793575
C           12.65005727809043        2.76697197055605        0.56745841736060
C           13.95986297672945        3.32733081233480        0.89195575610297
C           14.86345133382870        2.33931531075250        0.71954738462921
N           12.79536885071661        1.45876989905324        0.20872941707494
C           14.09813021050937        1.17314275311078        0.27951970774306
C           14.67042199055607       -0.07210579999700       -0.08325903629843
C           14.03143285843175       -1.24852602254663       -0.53246864294906
C           14.60024658796151       -2.33294941970159       -1.23964434392706
C           13.61133894731083       -3.27806008268903       -1.43152176714056
C           12.41086938141692       -2.80728959781653       -0.84439225386416
N           12.71369149420478       -1.55934561171406       -0.33978859793843
C           11.15640871269430       -3.44150937499148       -0.77017734738646
C           11.09393503869080       -4.93599169336597       -0.93127263866920
C           11.45678265738602       -5.78247542193828        0.12102540336168
C           11.41241607314796       -7.15978316262611       -0.05434707438196
N           11.03140749010843       -7.73347269878371       -1.18889360210210
C           10.65415927379698       -6.94536020476642       -2.18826764561019
C           10.65757319880530       -5.55826373619331       -2.10439120389618
C            9.95093144278927       -2.76932506081812       -0.53494472412009