      -----------------------------------------------------------      
     |                   =====================                   |     
     |                           x T B                           |     
     |                   =====================                   |     
     |                         S. Grimme                         |     
     |          Mulliken Center for Theoretical Chemistry        |     
     |                    University of Bonn                     |     
      -----------------------------------------------------------      

   * xtb version 6.5.1 (b24c23e) compiled by 'conda@728c89f4b128' on 2022-07-12

   xtb is free software: you can redistribute it and/or modify it under
   the terms of the GNU Lesser General Public License as published by
   the Free Software Foundation, either version 3 of the License, or
   (at your option) any later version.
   
   xtb is distributed in the hope that it will be useful,
   but WITHOUT ANY WARRANTY; without even the implied warranty of
   MERCHANTABILITY or FITNESS FOR A PARTICULAR PURPOSE.  See the
   GNU Lesser General Public License for more details.
   
   Cite this work as:
   * C. Bannwarth, E. Caldeweyher, S. Ehlert, A. Hansen, P. Pracht,
     J. Seibert, S. Spicher, S. Grimme, WIREs Comput. Mol. Sci., 2020, 11,
     e01493. DOI: 10.1002/wcms.1493
   
   for GFN2-xTB:
   * C. Bannwarth, S. Ehlert and S. Grimme., J. Chem. Theory Comput., 2019,
     15, 1652-1671. DOI: 10.1021/acs.jctc.8b01176
   for GFN1-xTB:
   * S. Grimme, C. Bannwarth, P. Shushkov, J. Chem. Theory Comput., 2017,
     13, 1989-2009. DOI: 10.1021/acs.jctc.7b00118
   for GFN0-xTB:
   * P. Pracht, E. Caldeweyher, S. Ehlert, S. Grimme, ChemRxiv, 2019, preprint.
     DOI: 10.26434/chemrxiv.8326202.v1
   for GFN-FF:
   * S. Spicher and S. Grimme, Angew. Chem. Int. Ed., 2020, 59, 15665-15673.
     DOI: 10.1002/anie.202004239
   
   for ALPB and GBSA implicit solvation:
   * S. Ehlert, M. Stahn, S. Spicher, S. Grimme, J. Chem. Theory Comput.,
     2021, 17, 4250-4261. DOI: 10.1021/acs.jctc.1c00471
   
   for DFT-D4:
   * E. Caldeweyher, C. Bannwarth and S. Grimme, J. Chem. Phys., 2017,
     147, 034112. DOI: 10.1063/1.4993215
   * E. Caldeweyher, S. Ehlert, A. Hansen, H. Neugebauer, S. Spicher,
     C. Bannwarth and S. Grimme, J. Chem. Phys., 2019, 150, 154122.
     DOI: 10.1063/1.5090222
   * E. Caldeweyher, J.-M. Mewes, S. Ehlert and S. Grimme, Phys. Chem. Chem. Phys.
     2020, 22, 8499-8512. DOI: 10.1039/D0CP00502A
   
   for sTDA-xTB:
   * S. Grimme and C. Bannwarth, J. Chem. Phys., 2016, 145, 054103.
     DOI: 10.1063/1.4959605
   
   in the mass-spec context:
   * V. Asgeirsson, C. Bauer and S. Grimme, Chem. Sci., 2017, 8, 4879.
     DOI: 10.1039/c7sc00601b
   * J. Koopman and S. Grimme, ACS Omega 2019, 4, 12, 15120-15133.
     DOI: 10.1021/acsomega.9b02011
   
   for metadynamics refer to:
   * S. Grimme, J. Chem. Theory Comput., 2019, 155, 2847-2862
     DOI: 10.1021/acs.jctc.9b00143
   
   for SPH calculations refer to:
   * S. Spicher and S. Grimme, J. Chem. Theory Comput., 2021, 17, 1701-1714
     DOI: 10.1021/acs.jctc.0c01306
   
   with help from (in alphabetical order)
   P. Atkinson, C. Bannwarth, F. Bohle, G. Brandenburg, E. Caldeweyher
   M. Checinski, S. Dohm, S. Ehlert, S. Ehrlich, I. Gerasimov, C. Hölzer
   A. Katbashev, J. Koopman, C. Lavigne, S. Lehtola, F. März, M. Müller,
   F. Musil, H. Neugebauer, J. Pisarek, C. Plett, P. Pracht, F. Pultar,
   J. Seibert, P. Shushkov, S. Spicher, M. Stahn, M. Steiner, T. Strunk,
   J. Stückrath, T. Rose, and J. Unsleber
   
 * started run on 2022/07/30 at 05:05:02.908     

           -------------------------------------------------
          |                Calculation Setup                |
           -------------------------------------------------

          program call               : xtb xtbopt.xyz --gfn 1 --vipea
          hostname                   : cx3-15-11.cx3.hpc.ic.ac.uk
          coordinate file            : xtbopt.xyz
          omp threads                :                     1

   ID    Z sym.   atoms
    1   28 Ni     1, 61, 133, 192
    2    6 C      2-6, 8-12, 16-20, 22-27, 29-33, 37-42, 62-66, 68-72, 76-80,
                  82-87, 89-93, 97-102, 121-132, 134-138, 140-144, 148-152,
                  154-159, 161-165, 169-174, 193-197, 199-203, 207-211,
                  213-218, 220-224, 228-233
    3    7 N      7, 13, 21, 28, 34, 43, 67, 73, 81, 88, 94, 103, 139, 145,
                  153, 160, 166, 175, 198, 204, 212, 219, 225, 234
    4    8 O      14, 15, 35, 36, 74, 75, 95, 96, 146, 147, 167, 168, 205,
                  206, 226, 227
    5    1 H      44-60, 104-120, 176-191, 235-250

           -------------------------------------------------
          |                 I P E A - x T B                 |
           -------------------------------------------------

        Reference                      10.1039/c7sc00601b
      * Hamiltonian:
        H0-scaling (s, p, d)           2.150000    2.300000    2.000000
        zeta-weighting                 0.000000
      * Dispersion:
        s8                             2.400000
        a1                             0.630000
        a2                             5.000000
        s9                             0.000000
      * Repulsion:
        kExp                           1.500000
        rExp                           1.000000
      * Coulomb:
        alpha                          1.000000
        third order                    atomic
        anisotropic                    false
      * Halogen bond correction:
        rad-scale                      1.300000
        damping                        0.440000


          ...................................................
          :                      SETUP                      :
          :.................................................:
          :  # basis functions                1072          :
          :  # atomic orbitals                1068          :
          :  # shells                          684          :
          :  # electrons                       882          :
          :  # halogen bonds                     0          :
          :  max. iterations                   250          :
          :  Hamiltonian                  GFN1-xTB          :
          :  restarted?                      false          :
          :  GBSA solvation                  false          :
          :  PC potential                    false          :
          :  electronic temp.          300.0000000     K    :
          :  accuracy                    1.0000000          :
          :  -> integral cutoff          0.2500000E+02      :
          :  -> integral neglect         0.1000000E-07      :
          :  -> SCF convergence          0.1000000E-05 Eh   :
          :  -> wf. convergence          0.2000000E-04 e    :
          :  Broyden damping             0.4000000          :
          ...................................................

 iter      E             dE          RMSdq      gap      omega  full diag
   1   -563.5013997 -0.563501E+03  0.103E+01    1.10       0.0  T
   2   -563.8083758 -0.306976E+00  0.633E+00    1.02       1.0  T
   3   -556.0727125  0.773566E+01  0.462E+00    0.69       1.0  T
   4   -564.9005777 -0.882787E+01  0.827E-01    1.49       1.0  T
   5   -565.2948393 -0.394262E+00  0.189E-01    1.28       1.0  T
   6   -565.3130327 -0.181934E-01  0.736E-02    1.31       1.0  T
   7   -565.3149463 -0.191353E-02  0.439E-02    1.29       1.0  T
   8   -565.3157671 -0.820828E-03  0.216E-02    1.29       1.0  T
   9   -565.3158513 -0.841870E-04  0.141E-02    1.30       1.0  T
  10   -565.3159296 -0.782729E-04  0.382E-03    1.30       1.7  T
  11   -565.3159330 -0.340804E-05  0.202E-03    1.30       3.1  T
  12   -565.3159347 -0.169979E-05  0.757E-04    1.30       8.4  T
  13   -565.3159350 -0.286497E-06  0.225E-04    1.30      28.1  T
  14   -565.3159350 -0.231506E-07  0.855E-05    1.30      73.9  T
  15   -565.3159350 -0.279317E-08  0.374E-05    1.30     169.3  T

   *** convergence criteria satisfied after 15 iterations ***

         #    Occupation            Energy/Eh            Energy/eV
      -------------------------------------------------------------
         1        2.0000           -1.1896062             -32.3708
       ...           ...                  ...                  ...
       435        2.0000           -0.3968085             -10.7977
       436        2.0000           -0.3965903             -10.7918
       437        2.0000           -0.3965629             -10.7910
       438        2.0000           -0.3964023             -10.7867
       439        2.0000           -0.3963824             -10.7861
       440        2.0000           -0.3951196             -10.7518
       441        2.0000           -0.3885190             -10.5721 (HOMO)
       442                         -0.3408988              -9.2763 (LUMO)
       443                         -0.3319186              -9.0320
       444                         -0.3263284              -8.8798
       445                         -0.3262780              -8.8785
       446                         -0.3240596              -8.8181
       ...                                ...                  ...
      1068                        533.9967215           14530.7904
      -------------------------------------------------------------
                  HL-Gap            0.0476203 Eh            1.2958 eV
             Fermi-level           -0.3647089 Eh           -9.9242 eV

 SCC (total)                   0 d,  0 h,  0 min, 16.886 sec
 SCC setup                      ...        0 min,  0.020 sec (  0.120%)
 Dispersion                     ...        0 min,  0.024 sec (  0.144%)
 classical contributions        ...        0 min,  0.006 sec (  0.037%)
 integral evaluation            ...        0 min,  1.422 sec (  8.419%)
 iterations                     ...        0 min, 12.415 sec ( 73.521%)
 molecular gradient             ...        0 min,  2.846 sec ( 16.852%)
 printout                       ...        0 min,  0.153 sec (  0.907%)

         :::::::::::::::::::::::::::::::::::::::::::::::::::::
         ::                     SUMMARY                     ::
         :::::::::::::::::::::::::::::::::::::::::::::::::::::
         :: total energy            -555.615534858042 Eh    ::
         :: gradient norm              0.131554959069 Eh/a0 ::
         :: HOMO-LUMO gap              1.295813083658 eV    ::
         ::.................................................::
         :: SCC energy              -565.315934978680 Eh    ::
         :: -> electrostatic           0.442382910910 Eh    ::
         :: repulsion energy           9.931444797271 Eh    ::
         :: dispersion energy         -0.231044676633 Eh    ::
         :: halogen bond corr.         0.000000000000 Eh    ::
         :: add. restraining           0.000000000000 Eh    ::
         :: total charge               0.000000000000 e     ::
         :::::::::::::::::::::::::::::::::::::::::::::::::::::

           ------------------------------------------------- 
          |        vertical delta SCC IP calculation        |
           ------------------------------------------------- 
   1   -564.8964847 -0.564896E+03  0.826E-02    1.30       0.0  T
   2   -564.8333198  0.631649E-01  0.355E-01    1.24       1.0  T
   3   -564.8862545 -0.529347E-01  0.179E-01    1.26       1.0  T
   4   -564.8959018 -0.964737E-02  0.985E-02    1.27       1.0  T
   5   -564.8986509 -0.274909E-02  0.576E-02    1.27       1.0  T
   6   -564.9009985 -0.234755E-02  0.498E-02    1.28       1.0  T
   7   -564.9034925 -0.249404E-02  0.292E-02    1.28       1.0  T
   8   -564.9035960 -0.103518E-03  0.179E-02    1.27       1.0  T
   9   -564.9036877 -0.916790E-04  0.117E-02    1.27       1.0  T
  10   -564.9037125 -0.248214E-04  0.898E-03    1.27       1.0  T
  11   -564.9037167 -0.413446E-05  0.752E-03    1.27       1.0  T
  12   -564.9037211 -0.443617E-05  0.615E-03    1.27       1.0  T
  13   -564.9037266 -0.546616E-05  0.519E-03    1.27       1.2  T
  14   -564.9037295 -0.290706E-05  0.442E-03    1.27       1.4  T
  15   -564.9037321 -0.267184E-05  0.357E-03    1.27       1.8  T
  16   -564.9037349 -0.275762E-05  0.252E-03    1.27       2.5  T
  17   -564.9037363 -0.144917E-05  0.171E-03    1.27       3.7  T
  18   -564.9037375 -0.110976E-05  0.621E-04    1.27      10.2  T
  19   -564.9037376 -0.142839E-06  0.205E-04    1.27      30.9  T
  20   -564.9037376 -0.148718E-07  0.776E-05    1.27      81.5  T
  21   -564.9037376 -0.230489E-08  0.178E-05    1.27     356.1  T
     SCC iter.                  ...        0 min, 14.620 sec
     gradient                   ...        0 min,  2.870 sec
------------------------------------------------------------------------
empirical IP shift (eV):    4.8455
delta SCC IP (eV):    6.3710
------------------------------------------------------------------------
           ------------------------------------------------- 
          |        vertical delta SCC EA calculation        |
           ------------------------------------------------- 
   1   -565.6058043 -0.565606E+03  0.150E-01    0.28       0.0  T
   2   -565.6179527 -0.121484E-01  0.133E-01    0.11       1.0  T
   3   -565.6276917 -0.973897E-02  0.781E-02    0.20       1.0  T
   4   -565.6250187  0.267299E-02  0.733E-02    0.17       1.0  T
   5   -565.6270459 -0.202717E-02  0.562E-02    0.16       1.0  T
   6   -565.6300113 -0.296545E-02  0.329E-02    0.14       1.0  T
   7   -565.6313946 -0.138326E-02  0.140E-02    0.16       1.0  T
   8   -565.6316539 -0.259276E-03  0.514E-03    0.16       1.2  T
   9   -565.6316737 -0.198386E-04  0.336E-03    0.15       1.9  T
  10   -565.6316778 -0.414551E-05  0.135E-03    0.16       4.7  T
  11   -565.6316788 -0.100124E-05  0.860E-04    0.16       7.4  T
  12   -565.6316794 -0.605462E-06  0.282E-04    0.16      22.5  T
  13   -565.6316795 -0.544979E-07  0.121E-04    0.16      52.3  T
  14   -565.6316795 -0.430896E-08  0.656E-05    0.16      96.5  T
     SCC iter.                  ...        0 min, 10.401 sec
     gradient                   ...        0 min,  2.956 sec
------------------------------------------------------------------------
empirical EA shift (eV):    4.8455
delta SCC EA (eV):    3.7463
------------------------------------------------------------------------
           -------------------------------------------------
          |                Property Printout                |
           -------------------------------------------------

    * Orbital Energies and Occupations

         #    Occupation            Energy/Eh            Energy/eV
      -------------------------------------------------------------
         1        2.0000           -1.1570174             -31.4840
       ...           ...                  ...                  ...
       430        2.0000           -0.3546100              -9.6494
       431        2.0000           -0.3544543              -9.6452
       432        2.0000           -0.3513660              -9.5612
       433        2.0000           -0.3509235              -9.5491
       434        2.0000           -0.3492273              -9.5030
       435        2.0000           -0.3490000              -9.4968
       436        2.0000           -0.3487683              -9.4905
       437        2.0000           -0.3487363              -9.4896
       438        2.0000           -0.3485713              -9.4851
       439        2.0000           -0.3482703              -9.4769
       440        2.0000           -0.3481102              -9.4726
       441        2.0000           -0.3394108              -9.2358
       442        0.9308           -0.2916523              -7.9363 (HOMO)
       443        0.0321           -0.2859481              -7.7810 (LUMO)
       444        0.0228           -0.2856154              -7.7720
       445        0.0142           -0.2851551              -7.7595
       446        0.0001           -0.2799180              -7.6170
       447        0.0000           -0.2795383              -7.6066
       448        0.0000           -0.2768063              -7.5323
       449        0.0000           -0.2752322              -7.4895
       450        0.0000           -0.2749893              -7.4828
       451                         -0.2702643              -7.3543
       452                         -0.2698396              -7.3427
       453                         -0.2682490              -7.2994
       ...                                ...                  ...
      1068                        534.0456502           14532.1218
      -------------------------------------------------------------
                  HL-Gap            0.0057042 Eh            0.1552 eV
             Fermi-level           -0.3023588 Eh           -8.2276 eV

  Mulliken/CM5 charges         n(s)   n(p)   n(d)
     1Ni    0.28160  0.65059   0.571  0.778  8.369
     2C    -0.02066 -0.06202   1.083  2.938  0.000
     3C     0.06026  0.12082   1.112  2.828  0.000
     4C    -0.03568 -0.08225   1.086  2.949  0.000
     5C    -0.03472 -0.08087   1.079  2.956  0.000
     6C     0.06065  0.12479   1.104  2.835  0.000
     7N    -0.20923 -0.46060   1.315  3.894  0.000
     8C     0.00954  0.01485   1.083  2.908  0.000
     9C     0.01887  0.01007   1.094  2.887  0.000
    10C    -0.01460 -0.06764   1.078  2.937  0.000
    11C    -0.00790 -0.05462   1.091  2.917  0.000
    12C     0.04432  0.09877   1.117  2.838  0.000
    13N     0.29824  0.12621   1.470  3.232  0.000
    14O    -0.27430 -0.23335   1.675  4.599  0.000
    15O    -0.27317 -0.23219   1.675  4.598  0.000
    16C    -0.00845 -0.05516   1.091  2.917  0.000
    17C    -0.01516 -0.06819   1.077  2.938  0.000
    18C     0.05976  0.12323   1.102  2.839  0.000
    19C    -0.03506 -0.08117   1.077  2.958  0.000
    20C    -0.03404 -0.07966   1.084  2.950  0.000
    21N    -0.20659 -0.45758   1.316  3.890  0.000
    22C     0.06419  0.12927   1.116  2.820  0.000
    23C     0.01868  0.02557   1.080  2.901  0.000
    24C     0.06417  0.12929   1.116  2.820  0.000
    25C    -0.03408 -0.07969   1.085  2.950  0.000
    26C    -0.03507 -0.08119   1.077  2.958  0.000
    27C     0.05969  0.12312   1.102  2.839  0.000
    28N    -0.20665 -0.45751   1.316  3.890  0.000
    29C     0.00952  0.01483   1.083  2.908  0.000
    30C     0.01888  0.01009   1.094  2.887  0.000
    31C    -0.01527 -0.06827   1.078  2.938  0.000
    32C    -0.00848 -0.05519   1.091  2.917  0.000
    33C     0.04430  0.09874   1.117  2.838  0.000
    34N     0.29820  0.12616   1.470  3.232  0.000
    35O    -0.27434 -0.23338   1.675  4.599  0.000
    36O    -0.27322 -0.23224   1.675  4.598  0.000
    37C    -0.00789 -0.05461   1.091  2.917  0.000
    38C    -0.01450 -0.06754   1.077  2.937  0.000
    39C     0.06069  0.12488   1.104  2.835  0.000
    40C    -0.03474 -0.08085   1.079  2.956  0.000
    41C    -0.03567 -0.08223   1.086  2.949  0.000
    42C     0.06024  0.12077   1.112  2.828  0.000
    43N    -0.20921 -0.46069   1.315  3.894  0.000
    44H     0.02836  0.08739   0.972  0.000  0.000
    45H     0.03419  0.09085   0.966  0.000  0.000
    46H     0.02649  0.08544   0.974  0.000  0.000
    47H     0.03422  0.09217   0.966  0.000  0.000
    48H     0.05448  0.11840   0.946  0.000  0.000
    49H     0.05333  0.11727   0.947  0.000  0.000
    50H     0.03328  0.09131   0.967  0.000  0.000
    51H     0.02720  0.08623   0.973  0.000  0.000
    52H     0.02917  0.08740   0.971  0.000  0.000
    53H     0.02918  0.08736   0.971  0.000  0.000
    54H     0.02709  0.08609   0.973  0.000  0.000
    55H     0.03320  0.09118   0.967  0.000  0.000
    56H     0.05327  0.11720   0.947  0.000  0.000
    57H     0.05452  0.11844   0.945  0.000  0.000
    58H     0.03434  0.09231   0.966  0.000  0.000
    59H     0.02659  0.08554   0.973  0.000  0.000
    60H     0.03416  0.09082   0.966  0.000  0.000
    61Ni    0.28132  0.65127   0.571  0.779  8.369
    62C    -0.02106 -0.06241   1.083  2.938  0.000
    63C     0.06021  0.12076   1.112  2.828  0.000
    64C    -0.03581 -0.08237   1.086  2.950  0.000
    65C    -0.03480 -0.08095   1.079  2.956  0.000
    66C     0.06045  0.12460   1.104  2.836  0.000
    67N    -0.20937 -0.46098   1.315  3.895  0.000
    68C     0.00953  0.01484   1.083  2.908  0.000
    69C     0.01898  0.01020   1.094  2.887  0.000
    70C    -0.01455 -0.06758   1.078  2.937  0.000
    71C    -0.00793 -0.05465   1.091  2.917  0.000
    72C     0.04432  0.09877   1.117  2.838  0.000
    73N     0.29836  0.12632   1.470  3.232  0.000
    74O    -0.27408 -0.23311   1.675  4.599  0.000
    75O    -0.27332 -0.23235   1.675  4.598  0.000
    76C    -0.00839 -0.05510   1.091  2.917  0.000
    77C    -0.01510 -0.06813   1.077  2.938  0.000
    78C     0.05945  0.12291   1.101  2.839  0.000
    79C    -0.03524 -0.08135   1.077  2.959  0.000
    80C    -0.03424 -0.07985   1.084  2.950  0.000
    81N    -0.20655 -0.45782   1.316  3.890  0.000
    82C     0.06405  0.12915   1.116  2.820  0.000
    83C     0.01842  0.02533   1.080  2.901  0.000
    84C     0.06403  0.12914   1.116  2.820  0.000
    85C    -0.03427 -0.07988   1.084  2.950  0.000
    86C    -0.03524 -0.08135   1.077  2.958  0.000
    87C     0.05939  0.12281   1.101  2.839  0.000
    88N    -0.20658 -0.45778   1.316  3.890  0.000
    89C     0.00952  0.01484   1.083  2.908  0.000
    90C     0.01900  0.01022   1.094  2.887  0.000
    91C    -0.01518 -0.06819   1.078  2.938  0.000
    92C    -0.00841 -0.05512   1.091  2.917  0.000
    93C     0.04431  0.09875   1.117  2.838  0.000
    94N     0.29834  0.12631   1.470  3.232  0.000
    95O    -0.27414 -0.23316   1.675  4.599  0.000
    96O    -0.27327 -0.23230   1.675  4.598  0.000
    97C    -0.00790 -0.05461   1.091  2.917  0.000
    98C    -0.01447 -0.06749   1.077  2.937  0.000
    99C     0.06047  0.12463   1.104  2.836  0.000
   100C    -0.03482 -0.08094   1.079  2.956  0.000
   101C    -0.03581 -0.08237   1.086  2.950  0.000
   102C     0.06021  0.12074   1.112  2.828  0.000
   103N    -0.20937 -0.46102   1.315  3.895  0.000
   104H     0.02811  0.08714   0.972  0.000  0.000
   105H     0.03397  0.09063   0.966  0.000  0.000
   106H     0.02628  0.08521   0.974  0.000  0.000
   107H     0.03413  0.09211   0.966  0.000  0.000
   108H     0.05429  0.11822   0.946  0.000  0.000
   109H     0.05339  0.11732   0.947  0.000  0.000
   110H     0.03334  0.09136   0.967  0.000  0.000
   111H     0.02699  0.08601   0.973  0.000  0.000
   112H     0.02914  0.08735   0.971  0.000  0.000
   113H     0.02913  0.08729   0.971  0.000  0.000
   114H     0.02691  0.08589   0.973  0.000  0.000
   115H     0.03327  0.09125   0.967  0.000  0.000
   116H     0.05332  0.11724   0.947  0.000  0.000
   117H     0.05436  0.11829   0.946  0.000  0.000
   118H     0.03424  0.09223   0.966  0.000  0.000
   119H     0.02636  0.08529   0.974  0.000  0.000
   120H     0.03396  0.09062   0.966  0.000  0.000
   121C    -0.01985 -0.02069   1.064  2.956  0.000
   122C    -0.02227 -0.02401   1.088  2.935  0.000
   123C    -0.02333 -0.02416   1.061  2.963  0.000
   124C    -0.01875 -0.02046   1.092  2.926  0.000
   125C    -0.02228 -0.02311   1.062  2.960  0.000
   126C    -0.02139 -0.02309   1.090  2.932  0.000
   127C    -0.02252 -0.02334   1.062  2.960  0.000
   128C    -0.02116 -0.02286   1.090  2.931  0.000
   129C    -0.02373 -0.02455   1.061  2.963  0.000
   130C    -0.01931 -0.02100   1.092  2.927  0.000
   131C    -0.02036 -0.02120   1.064  2.957  0.000
   132C    -0.02276 -0.02448   1.087  2.935  0.000
   133Ni    0.27991  0.64940   0.571  0.777  8.372
   134C     0.01430  0.02123   1.077  2.909  0.000
   135C     0.06382  0.12894   1.117  2.820  0.000
   136C    -0.03630 -0.08191   1.083  2.953  0.000
   137C    -0.03550 -0.08161   1.078  2.958  0.000
   138C     0.05800  0.12146   1.100  2.842  0.000
   139N    -0.20758 -0.45883   1.315  3.892  0.000
   140C     0.01160  0.01687   1.084  2.904  0.000
   141C     0.01968  0.01089   1.095  2.886  0.000
   142C    -0.01426 -0.06730   1.077  2.937  0.000
   143C    -0.00795 -0.05466   1.091  2.917  0.000
   144C     0.04437  0.09875   1.118  2.838  0.000
   145N     0.29886  0.12682   1.470  3.231  0.000
   146O    -0.27345 -0.23244   1.675  4.598  0.000
   147O    -0.27333 -0.23233   1.675  4.598  0.000
   148C    -0.00807 -0.05478   1.091  2.917  0.000
   149C    -0.01443 -0.06743   1.078  2.937  0.000
   150C     0.05809  0.12146   1.100  2.842  0.000
   151C    -0.03545 -0.08158   1.077  2.958  0.000
   152C    -0.03556 -0.08117   1.084  2.952  0.000
   153N    -0.20725 -0.45830   1.316  3.892  0.000
   154C     0.06404  0.12925   1.117  2.819  0.000
   155C     0.01580  0.02273   1.078  2.906  0.000
   156C     0.06397  0.12913   1.117  2.819  0.000
   157C    -0.03558 -0.08118   1.084  2.952  0.000
   158C    -0.03545 -0.08156   1.077  2.958  0.000
   159C     0.05810  0.12151   1.100  2.842  0.000
   160N    -0.20714 -0.45841   1.315  3.892  0.000
   161C     0.01159  0.01687   1.084  2.904  0.000
   162C     0.01967  0.01089   1.095  2.886  0.000
   163C    -0.01429 -0.06729   1.078  2.937  0.000
   164C    -0.00796 -0.05467   1.091  2.917  0.000
   165C     0.04436  0.09875   1.118  2.838  0.000
   166N     0.29876  0.12675   1.470  3.231  0.000
   167O    -0.27332 -0.23233   1.675  4.598  0.000
   168O    -0.27353 -0.23253   1.675  4.598  0.000
   169C    -0.00807 -0.05479   1.091  2.917  0.000
   170C    -0.01438 -0.06741   1.077  2.937  0.000
   171C     0.05796  0.12137   1.100  2.842  0.000
   172C    -0.03547 -0.08161   1.078  2.958  0.000
   173C    -0.03630 -0.08191   1.083  2.953  0.000
   174C     0.06391  0.12907   1.117  2.820  0.000
   175N    -0.20763 -0.45886   1.315  3.892  0.000
   176H     0.02627  0.08445   0.974  0.000  0.000
   177H     0.02520  0.08417   0.975  0.000  0.000
   178H     0.03390  0.09190   0.966  0.000  0.000
   179H     0.05380  0.11774   0.946  0.000  0.000
   180H     0.05355  0.11748   0.946  0.000  0.000
   181H     0.03354  0.09155   0.966  0.000  0.000
   182H     0.02554  0.08453   0.974  0.000  0.000
   183H     0.02739  0.08559   0.973  0.000  0.000
   184H     0.02730  0.08546   0.973  0.000  0.000
   185H     0.02553  0.08448   0.974  0.000  0.000
   186H     0.03385  0.09186   0.966  0.000  0.000
   187H     0.05380  0.11773   0.946  0.000  0.000
   188H     0.05355  0.11749   0.946  0.000  0.000
   189H     0.03359  0.09161   0.966  0.000  0.000
   190H     0.02515  0.08414   0.975  0.000  0.000
   191H     0.02630  0.08448   0.974  0.000  0.000
   192Ni    0.27978  0.65021   0.571  0.777  8.372
   193C     0.01547  0.02242   1.078  2.907  0.000
   194C     0.06390  0.12904   1.117  2.819  0.000
   195C    -0.03574 -0.08134   1.084  2.952  0.000
   196C    -0.03553 -0.08163   1.077  2.958  0.000
   197C     0.05796  0.12139   1.100  2.843  0.000
   198N    -0.20724 -0.45872   1.315  3.892  0.000
   199C     0.01161  0.01689   1.084  2.904  0.000
   200C     0.01972  0.01094   1.095  2.886  0.000
   201C    -0.01438 -0.06741   1.077  2.937  0.000
   202C    -0.00811 -0.05482   1.091  2.917  0.000
   203C     0.04434  0.09872   1.118  2.838  0.000
   204N     0.29882  0.12679   1.470  3.231  0.000
   205O    -0.27331 -0.23231   1.675  4.598  0.000
   206O    -0.27364 -0.23263   1.675  4.599  0.000
   207C    -0.00793 -0.05464   1.091  2.917  0.000
   208C    -0.01430 -0.06728   1.078  2.937  0.000
   209C     0.05774  0.12112   1.100  2.843  0.000
   210C    -0.03559 -0.08172   1.078  2.958  0.000
   211C    -0.03643 -0.08203   1.083  2.953  0.000
   212N    -0.20762 -0.45898   1.315  3.892  0.000
   213C     0.06383  0.12901   1.117  2.820  0.000
   214C     0.01423  0.02118   1.077  2.909  0.000
   215C     0.06379  0.12891   1.117  2.819  0.000
   216C    -0.03640 -0.08200   1.083  2.953  0.000
   217C    -0.03558 -0.08168   1.078  2.958  0.000
   218C     0.05777  0.12121   1.099  2.843  0.000
   219N    -0.20750 -0.45912   1.315  3.892  0.000
   220C     0.01164  0.01692   1.084  2.904  0.000
   221C     0.01971  0.01094   1.095  2.886  0.000
   222C    -0.01446 -0.06744   1.078  2.937  0.000
   223C    -0.00811 -0.05482   1.091  2.917  0.000
   224C     0.04436  0.09874   1.118  2.838  0.000
   225N     0.29876  0.12675   1.470  3.231  0.000
   226O    -0.27368 -0.23269   1.675  4.599  0.000
   227O    -0.27324 -0.23225   1.675  4.598  0.000
   228C    -0.00791 -0.05462   1.091  2.917  0.000
   229C    -0.01418 -0.06721   1.077  2.937  0.000
   230C     0.05789  0.12125   1.100  2.842  0.000
   231C    -0.03547 -0.08161   1.078  2.958  0.000
   232C    -0.03573 -0.08133   1.084  2.952  0.000
   233C     0.06403  0.12926   1.117  2.819  0.000
   234N    -0.20727 -0.45862   1.315  3.892  0.000
   235H     0.02710  0.08527   0.973  0.000  0.000
   236H     0.02539  0.08433   0.975  0.000  0.000
   237H     0.03355  0.09156   0.966  0.000  0.000
   238H     0.05338  0.11732   0.947  0.000  0.000
   239H     0.05379  0.11772   0.946  0.000  0.000
   240H     0.03383  0.09183   0.966  0.000  0.000
   241H     0.02507  0.08404   0.975  0.000  0.000
   242H     0.02641  0.08458   0.974  0.000  0.000
   243H     0.02635  0.08451   0.974  0.000  0.000
   244H     0.02513  0.08409   0.975  0.000  0.000
   245H     0.03346  0.09145   0.967  0.000  0.000
   246H     0.05337  0.11730   0.947  0.000  0.000
   247H     0.05384  0.11777   0.946  0.000  0.000
   248H     0.03390  0.09193   0.966  0.000  0.000
   249H     0.02531  0.08427   0.975  0.000  0.000
   250H     0.02718  0.08535   0.973  0.000  0.000

Wiberg/Mayer (AO) data.
largest (>0.10) Wiberg bond orders for each atom

 ---------------------------------------------------------------------------
     #   Z sym  total        # sym  WBO       # sym  WBO       # sym  WBO
 ---------------------------------------------------------------------------
     1  28 Ni   3.318 --    43 N    0.710    21 N    0.710     7 N    0.710
                            28 N    0.710
     2   6 C    3.809 --    42 C    1.392     3 C    1.391    44 H    0.995
     3   6 C    3.945 --     2 C    1.391     7 N    1.254     4 C    1.201
     4   6 C    3.847 --     5 C    1.642     3 C    1.201    45 H    0.992
     5   6 C    3.830 --     4 C    1.642     6 C    1.207    46 H    0.998
     6   6 C    3.917 --     8 C    1.366     7 N    1.252     5 C    1.207
     7   7 N    3.008 --     3 C    1.254     6 C    1.252     1 Ni   0.710
     8   6 C    3.831 --     6 C    1.366    18 C    1.363     9 C    1.053
     9   6 C    3.896 --    10 C    1.416    17 C    1.416     8 C    1.053
    10   6 C    3.865 --    11 C    1.465     9 C    1.416    47 H    0.987
    11   6 C    3.897 --    10 C    1.465    12 C    1.405    48 H    0.985
    12   6 C    3.934 --    11 C    1.405    16 C    1.405    13 N    1.005
    13   7 N    4.108 --    15 O    1.568    14 O    1.567    12 C    1.005
    14   8 O    2.007 --    13 N    1.567    15 O    0.381
    15   8 O    2.009 --    13 N    1.568    14 O    0.381
    16   6 C    3.898 --    17 C    1.465    12 C    1.405    49 H    0.985
    17   6 C    3.864 --    16 C    1.465     9 C    1.416    50 H    0.987
    18   6 C    3.903 --     8 C    1.363    21 N    1.244    19 C    1.217
    19   6 C    3.821 --    20 C    1.623    18 C    1.217    51 H    0.997
    20   6 C    3.835 --    19 C    1.623    22 C    1.227    52 H    0.997
    21   7 N    3.022 --    22 C    1.276    18 C    1.244     1 Ni   0.710
    22   6 C    3.920 --    23 C    1.302    21 N    1.276    20 C    1.227
    23   6 C    3.833 --    22 C    1.302    24 C    1.301   122 C    1.214
    24   6 C    3.920 --    23 C    1.301    28 N    1.277    25 C    1.227
    25   6 C    3.836 --    26 C    1.623    24 C    1.227    53 H    0.997
    26   6 C    3.821 --    25 C    1.623    27 C    1.217    54 H    0.997
    27   6 C    3.903 --    29 C    1.364    28 N    1.243    26 C    1.217
    28   7 N    3.022 --    24 C    1.277    27 C    1.243     1 Ni   0.710
    29   6 C    3.831 --    39 C    1.366    27 C    1.364    30 C    1.053
    30   6 C    3.896 --    38 C    1.416    31 C    1.416    29 C    1.053
    31   6 C    3.865 --    32 C    1.465    30 C    1.416    55 H    0.987
    32   6 C    3.898 --    31 C    1.465    33 C    1.405    56 H    0.985
    33   6 C    3.934 --    37 C    1.405    32 C    1.405    34 N    1.005
    34   7 N    4.108 --    36 O    1.568    35 O    1.567    33 C    1.005
    35   8 O    2.007 --    34 N    1.567    36 O    0.381
    36   8 O    2.009 --    34 N    1.568    35 O    0.381
    37   6 C    3.897 --    38 C    1.465    33 C    1.405    57 H    0.985
    38   6 C    3.865 --    37 C    1.465    30 C    1.416    58 H    0.987
    39   6 C    3.917 --    29 C    1.366    43 N    1.253    40 C    1.207
    40   6 C    3.830 --    41 C    1.642    39 C    1.207    59 H    0.998
    41   6 C    3.847 --    40 C    1.642    42 C    1.201    60 H    0.992
    42   6 C    3.945 --     2 C    1.392    43 N    1.253    41 C    1.201
    43   7 N    3.008 --    42 C    1.253    39 C    1.253     1 Ni   0.710
    44   1 H    1.037 --     2 C    0.995
    45   1 H    1.024 --     4 C    0.992
    46   1 H    1.041 --     5 C    0.998
    47   1 H    1.048 --    10 C    0.987
    48   1 H    1.029 --    11 C    0.985
    49   1 H    1.029 --    16 C    0.985
    50   1 H    1.048 --    17 C    0.987
    51   1 H    1.041 --    19 C    0.997
    52   1 H    1.035 --    20 C    0.997
    53   1 H    1.036 --    25 C    0.997
    54   1 H    1.041 --    26 C    0.997
    55   1 H    1.048 --    31 C    0.987
    56   1 H    1.030 --    32 C    0.985
    57   1 H    1.029 --    37 C    0.985
    58   1 H    1.048 --    38 C    0.987
    59   1 H    1.041 --    40 C    0.998
    60   1 H    1.024 --    41 C    0.992
    61  28 Ni   3.320 --   103 N    0.711    67 N    0.710    81 N    0.710
                            88 N    0.710
    62   6 C    3.808 --   102 C    1.392    63 C    1.391   104 H    0.995
    63   6 C    3.945 --    62 C    1.391    67 N    1.254    64 C    1.201
    64   6 C    3.846 --    65 C    1.642    63 C    1.201   105 H    0.992
    65   6 C    3.831 --    64 C    1.642    66 C    1.207   106 H    0.998
    66   6 C    3.917 --    68 C    1.367    67 N    1.252    65 C    1.207
    67   7 N    3.007 --    63 C    1.254    66 C    1.252    61 Ni   0.710
    68   6 C    3.832 --    66 C    1.367    78 C    1.363    69 C    1.053
    69   6 C    3.896 --    70 C    1.416    77 C    1.416    68 C    1.053
    70   6 C    3.865 --    71 C    1.465    69 C    1.416   107 H    0.987
    71   6 C    3.898 --    70 C    1.465    72 C    1.405   108 H    0.985
    72   6 C    3.934 --    76 C    1.406    71 C    1.405    73 N    1.005
    73   7 N    4.109 --    75 O    1.568    74 O    1.567    72 C    1.005
    74   8 O    2.008 --    73 N    1.567    75 O    0.382
    75   8 O    2.009 --    73 N    1.568    74 O    0.382
    76   6 C    3.898 --    77 C    1.465    72 C    1.406   109 H    0.985
    77   6 C    3.865 --    76 C    1.465    69 C    1.416   110 H    0.987
    78   6 C    3.902 --    68 C    1.363    81 N    1.243    79 C    1.218
    79   6 C    3.820 --    80 C    1.622    78 C    1.218   111 H    0.997
    80   6 C    3.835 --    79 C    1.622    82 C    1.228   112 H    0.998
    81   7 N    3.022 --    82 C    1.277    78 C    1.243    61 Ni   0.710
    82   6 C    3.919 --    83 C    1.299    81 N    1.277    80 C    1.228
    83   6 C    3.831 --    82 C    1.299    84 C    1.299   132 C    1.219
    84   6 C    3.920 --    83 C    1.299    88 N    1.277    85 C    1.228
    85   6 C    3.835 --    86 C    1.621    84 C    1.228   113 H    0.998
    86   6 C    3.820 --    85 C    1.621    87 C    1.218   114 H    0.997
    87   6 C    3.903 --    89 C    1.363    88 N    1.243    86 C    1.218
    88   7 N    3.022 --    84 C    1.277    87 C    1.243    61 Ni   0.710
    89   6 C    3.832 --    99 C    1.367    87 C    1.363    90 C    1.053
    90   6 C    3.897 --    98 C    1.416    91 C    1.416    89 C    1.053
    91   6 C    3.865 --    92 C    1.465    90 C    1.416   115 H    0.987
    92   6 C    3.898 --    91 C    1.465    93 C    1.406   116 H    0.985
    93   6 C    3.934 --    92 C    1.406    97 C    1.405    94 N    1.005
    94   7 N    4.109 --    96 O    1.568    95 O    1.567    93 C    1.005
    95   8 O    2.008 --    94 N    1.567    96 O    0.382
    96   8 O    2.009 --    94 N    1.568    95 O    0.382
    97   6 C    3.898 --    98 C    1.465    93 C    1.405   117 H    0.985
    98   6 C    3.865 --    97 C    1.465    90 C    1.416   118 H    0.987
    99   6 C    3.917 --    89 C    1.367   103 N    1.252   100 C    1.207
   100   6 C    3.831 --   101 C    1.642    99 C    1.207   119 H    0.998
   101   6 C    3.846 --   100 C    1.642   102 C    1.201   120 H    0.992
   102   6 C    3.945 --    62 C    1.392   103 N    1.253   101 C    1.201
   103   7 N    3.007 --   102 C    1.253    99 C    1.252    61 Ni   0.711
   104   1 H    1.037 --    62 C    0.995
   105   1 H    1.024 --    64 C    0.992
   106   1 H    1.041 --    65 C    0.998
   107   1 H    1.048 --    70 C    0.987
   108   1 H    1.029 --    71 C    0.985
   109   1 H    1.029 --    76 C    0.985
   110   1 H    1.048 --    77 C    0.987
   111   1 H    1.041 --    79 C    0.997
   112   1 H    1.035 --    80 C    0.998
   113   1 H    1.035 --    85 C    0.998
   114   1 H    1.041 --    86 C    0.997
   115   1 H    1.048 --    91 C    0.987
   116   1 H    1.029 --    92 C    0.985
   117   1 H    1.029 --    97 C    0.985
   118   1 H    1.048 --    98 C    0.987
   119   1 H    1.041 --   100 C    0.998
   120   1 H    1.024 --   101 C    0.992
   121   6 C    3.811 --   122 C    2.507   123 C    1.324
   122   6 C    3.799 --   121 C    2.507    23 C    1.214   124 C    0.180
   123   6 C    3.808 --   124 C    2.505   121 C    1.324
   124   6 C    3.802 --   123 C    2.505   134 C    1.216   122 C    0.180
   125   6 C    3.808 --   126 C    2.498   127 C    1.330
   126   6 C    3.800 --   125 C    2.498   155 C    1.222   128 C    0.179
   127   6 C    3.808 --   128 C    2.498   125 C    1.330
   128   6 C    3.800 --   127 C    2.498   193 C    1.222   126 C    0.179
   129   6 C    3.808 --   130 C    2.500   131 C    1.328
   130   6 C    3.803 --   129 C    2.500   214 C    1.221   132 C    0.180
   131   6 C    3.811 --   132 C    2.502   129 C    1.328
   132   6 C    3.800 --   131 C    2.502    83 C    1.219   130 C    0.180
   133  28 Ni   3.302 --   160 N    0.708   153 N    0.708   139 N    0.708
                           175 N    0.708
   134   6 C    3.818 --   135 C    1.297   174 C    1.297   124 C    1.216
   135   6 C    3.922 --   134 C    1.297   139 N    1.279   136 C    1.228
   136   6 C    3.832 --   137 C    1.621   135 C    1.228   176 H    0.998
   137   6 C    3.823 --   136 C    1.621   138 C    1.219   177 H    0.997
   138   6 C    3.901 --   140 C    1.366   139 N    1.239   137 C    1.219
   139   7 N    3.008 --   135 C    1.279   138 C    1.239   133 Ni   0.708
   140   6 C    3.831 --   138 C    1.366   150 C    1.366   141 C    1.053
   141   6 C    3.897 --   142 C    1.417   149 C    1.416   140 C    1.053
   142   6 C    3.865 --   143 C    1.464   141 C    1.417   178 H    0.987
   143   6 C    3.898 --   142 C    1.464   144 C    1.406   179 H    0.985
   144   6 C    3.934 --   143 C    1.406   148 C    1.406   145 N    1.004
   145   7 N    4.111 --   147 O    1.569   146 O    1.568   144 C    1.004
   146   8 O    2.010 --   145 N    1.568   147 O    0.382
   147   8 O    2.011 --   145 N    1.569   146 O    0.382
   148   6 C    3.898 --   149 C    1.465   144 C    1.406   180 H    0.985
   149   6 C    3.865 --   148 C    1.465   141 C    1.416   181 H    0.987
   150   6 C    3.900 --   140 C    1.366   153 N    1.239   151 C    1.220
   151   6 C    3.823 --   152 C    1.620   150 C    1.220   182 H    0.997
   152   6 C    3.832 --   151 C    1.620   154 C    1.229   183 H    0.998
   153   7 N    3.010 --   154 C    1.281   150 C    1.239   133 Ni   0.708
   154   6 C    3.921 --   155 C    1.295   153 N    1.281   152 C    1.229
   155   6 C    3.818 --   156 C    1.295   154 C    1.295   126 C    1.222
   156   6 C    3.921 --   155 C    1.295   160 N    1.280   157 C    1.229
   157   6 C    3.832 --   158 C    1.619   156 C    1.229   184 H    0.998
   158   6 C    3.823 --   157 C    1.619   159 C    1.220   185 H    0.997
   159   6 C    3.900 --   161 C    1.364   160 N    1.239   158 C    1.220
   160   7 N    3.010 --   156 C    1.280   159 C    1.239   133 Ni   0.708
   161   6 C    3.831 --   171 C    1.367   159 C    1.364   162 C    1.054
   162   6 C    3.897 --   170 C    1.416   163 C    1.416   161 C    1.054
   163   6 C    3.865 --   164 C    1.465   162 C    1.416   186 H    0.987
   164   6 C    3.898 --   163 C    1.465   165 C    1.406   187 H    0.985
   165   6 C    3.934 --   169 C    1.406   164 C    1.406   166 N    1.004
   166   7 N    4.111 --   167 O    1.568   168 O    1.568   165 C    1.004
   167   8 O    2.010 --   166 N    1.568   168 O    0.382
   168   8 O    2.010 --   166 N    1.568   167 O    0.382
   169   6 C    3.898 --   170 C    1.465   165 C    1.406   188 H    0.985
   170   6 C    3.865 --   169 C    1.465   162 C    1.416   189 H    0.987
   171   6 C    3.901 --   161 C    1.367   175 N    1.238   172 C    1.219
   172   6 C    3.823 --   173 C    1.621   171 C    1.219   190 H    0.997
   173   6 C    3.832 --   172 C    1.621   174 C    1.228   191 H    0.998
   174   6 C    3.922 --   134 C    1.297   175 N    1.280   173 C    1.228
   175   7 N    3.008 --   174 C    1.280   171 C    1.238   133 Ni   0.708
   176   1 H    1.036 --   136 C    0.998
   177   1 H    1.042 --   137 C    0.997
   178   1 H    1.048 --   142 C    0.987
   179   1 H    1.029 --   143 C    0.985
   180   1 H    1.029 --   148 C    0.985
   181   1 H    1.048 --   149 C    0.987
   182   1 H    1.042 --   151 C    0.997
   183   1 H    1.036 --   152 C    0.998
   184   1 H    1.036 --   157 C    0.998
   185   1 H    1.041 --   158 C    0.997
   186   1 H    1.048 --   163 C    0.987
   187   1 H    1.029 --   164 C    0.985
   188   1 H    1.029 --   169 C    0.985
   189   1 H    1.048 --   170 C    0.987
   190   1 H    1.042 --   172 C    0.997
   191   1 H    1.036 --   173 C    0.998
   192  28 Ni   3.304 --   198 N    0.709   219 N    0.708   234 N    0.708
                           212 N    0.708
   193   6 C    3.817 --   194 C    1.295   233 C    1.294   128 C    1.222
   194   6 C    3.921 --   193 C    1.295   198 N    1.280   195 C    1.229
   195   6 C    3.832 --   196 C    1.620   194 C    1.229   235 H    0.998
   196   6 C    3.823 --   195 C    1.620   197 C    1.220   236 H    0.997
   197   6 C    3.900 --   199 C    1.364   198 N    1.239   196 C    1.220
   198   7 N    3.009 --   194 C    1.280   197 C    1.239   192 Ni   0.709
   199   6 C    3.831 --   209 C    1.367   197 C    1.364   200 C    1.053
   200   6 C    3.898 --   208 C    1.416   201 C    1.416   199 C    1.053
   201   6 C    3.865 --   202 C    1.465   200 C    1.416   237 H    0.987
   202   6 C    3.898 --   201 C    1.465   203 C    1.406   238 H    0.985
   203   6 C    3.934 --   207 C    1.406   202 C    1.406   204 N    1.004
   204   7 N    4.111 --   205 O    1.569   206 O    1.568   203 C    1.004
   205   8 O    2.010 --   204 N    1.569   206 O    0.382
   206   8 O    2.010 --   204 N    1.568   205 O    0.382
   207   6 C    3.898 --   208 C    1.465   203 C    1.406   239 H    0.985
   208   6 C    3.866 --   207 C    1.465   200 C    1.416   240 H    0.987
   209   6 C    3.901 --   199 C    1.367   212 N    1.238   210 C    1.219
   210   6 C    3.823 --   211 C    1.620   209 C    1.219   241 H    0.998
   211   6 C    3.831 --   210 C    1.620   213 C    1.229   242 H    0.998
   212   7 N    3.008 --   213 C    1.281   209 C    1.238   192 Ni   0.708
   213   6 C    3.921 --   214 C    1.294   212 N    1.281   211 C    1.229
   214   6 C    3.817 --   215 C    1.295   213 C    1.294   130 C    1.221
   215   6 C    3.921 --   214 C    1.295   219 N    1.280   216 C    1.229
   216   6 C    3.831 --   217 C    1.620   215 C    1.229   243 H    0.998
   217   6 C    3.823 --   216 C    1.620   218 C    1.220   244 H    0.998
   218   6 C    3.900 --   220 C    1.366   219 N    1.239   217 C    1.220
   219   7 N    3.008 --   215 C    1.280   218 C    1.239   192 Ni   0.708
   220   6 C    3.831 --   230 C    1.366   218 C    1.366   221 C    1.054
   221   6 C    3.897 --   229 C    1.416   222 C    1.416   220 C    1.054
   222   6 C    3.866 --   223 C    1.465   221 C    1.416   245 H    0.987
   223   6 C    3.898 --   222 C    1.465   224 C    1.406   246 H    0.985
   224   6 C    3.934 --   223 C    1.406   228 C    1.406   225 N    1.004
   225   7 N    4.111 --   227 O    1.569   226 O    1.568   224 C    1.004
   226   8 O    2.010 --   225 N    1.568   227 O    0.382
   227   8 O    2.011 --   225 N    1.569   226 O    0.382
   228   6 C    3.898 --   229 C    1.465   224 C    1.406   247 H    0.985
   229   6 C    3.865 --   228 C    1.465   221 C    1.416   248 H    0.987
   230   6 C    3.900 --   220 C    1.366   234 N    1.238   231 C    1.220
   231   6 C    3.823 --   232 C    1.619   230 C    1.220   249 H    0.997
   232   6 C    3.832 --   231 C    1.619   233 C    1.229   250 H    0.998
   233   6 C    3.921 --   193 C    1.294   234 N    1.281   232 C    1.229
   234   7 N    3.009 --   233 C    1.281   230 C    1.238   192 Ni   0.708
   235   1 H    1.036 --   195 C    0.998
   236   1 H    1.041 --   196 C    0.997
   237   1 H    1.048 --   201 C    0.987
   238   1 H    1.029 --   202 C    0.985
   239   1 H    1.029 --   207 C    0.985
   240   1 H    1.048 --   208 C    0.987
   241   1 H    1.042 --   210 C    0.998
   242   1 H    1.036 --   211 C    0.998
   243   1 H    1.036 --   216 C    0.998
   244   1 H    1.042 --   217 C    0.998
   245   1 H    1.048 --   222 C    0.987
   246   1 H    1.029 --   223 C    0.985
   247   1 H    1.029 --   228 C    0.985
   248   1 H    1.048 --   229 C    0.987
   249   1 H    1.042 --   231 C    0.997
   250   1 H    1.036 --   232 C    0.998
 ---------------------------------------------------------------------------

Topologies differ in total number of bonds
Writing topology from bond orders to xtbtopo.mol

 dipole moment from electron density (au)
     X       Y       Z   
-129.9580  -0.0309   0.0780  total (Debye):  330.320


           -------------------------------------------------
          | TOTAL ENERGY             -555.931279384613 Eh   |
          | GRADIENT NORM               0.145619429413 Eh/α |
          | HOMO-LUMO GAP               0.155218313424 eV   |
           -------------------------------------------------
########################################################################
[WARNING] Runtime exception occurred
-1- restart_readRestart: Dimension missmatch in restart file.
########################################################################

------------------------------------------------------------------------
 * finished run on 2022/07/30 at 05:05:54.948     
------------------------------------------------------------------------
 total:
 * wall-time:     0 d,  0 h,  0 min, 52.040 sec
 *  cpu-time:     0 d,  0 h,  0 min, 51.697 sec
 * ratio c/w:     0.993 speedup
 SCF:
 * wall-time:     0 d,  0 h,  0 min, 50.763 sec
 *  cpu-time:     0 d,  0 h,  0 min, 50.438 sec
 * ratio c/w:     0.994 speedup

