118
 energy: -193.339071387537 gnorm: 6.161482431369 xtb: 6.5.1 (b24c23e)
Zn          13.15859300000000        0.04826800000000        0.00435000000000
C            9.82203000000000       -0.10780300000000       -0.00606300000000
C           10.48613900000000       -1.26000700000000       -0.13389200000000
C            9.83646100000000       -2.55674800000000       -0.28428100000000
C           10.77829000000000       -3.48046000000000       -0.33167400000000
C           12.08311900000000       -2.81604000000000       -0.21220600000000
N           11.90483300000000       -1.40446100000000       -0.09176900000000
C           13.27332200000000       -3.44776600000000       -0.16702600000000
C           14.56695500000000       -2.73172900000000       -0.01655800000000
C           15.85749800000000       -3.40652700000000        0.16835400000000
C           16.79221400000000       -2.48005100000000        0.22614800000000
N           14.70757300000000       -1.44267400000000       -0.07652600000000
C           16.10707800000000       -1.20263700000000        0.07074700000000
C           16.70165200000000       -0.00020900000000        0.00005800000000
C           15.94063800000000        1.25737400000000       -0.17885200000000
C           16.47760600000000        2.40244500000000       -0.58105700000000
C           15.43387100000000        3.40719600000000       -0.53899900000000
C           14.32785300000000        2.81075100000000       -0.10970500000000
C           13.04274500000000        3.51276400000000        0.14149800000000
C           13.06186500000000        4.98756500000000        0.29945800000000
C           12.40260200000000        5.81351700000000       -0.62679000000000
C           12.44130400000000        7.20363100000000       -0.48169200000000
C           13.14285900000000        7.77759000000000        0.58228300000000
C           13.80890200000000        6.96235600000000        1.50178100000000
C           13.77210800000000        5.57170300000000        1.36085800000000
C           11.87769700000000        2.84276200000000        0.23020000000000
C           10.56533800000000        3.42369800000000        0.50898400000000
C            9.70374500000000        2.42662600000000        0.45650000000000
C           10.45672700000000        1.20967700000000        0.15821700000000
N           11.72487800000000        1.43978500000000        0.02478400000000
N           14.55761200000000        1.42212400000000        0.13731800000000
C           13.31210300000000       -4.92267600000000       -0.25893300000000
C           13.21111500000000       -5.55482700000000       -1.50782900000000
C           13.24920700000000       -6.95007600000000       -1.59242100000000
C           13.38912300000000       -7.71860900000000       -0.43282100000000
C           13.49097100000000       -7.09302700000000        0.81342900000000
C           13.45259000000000       -5.69807600000000        0.90228100000000
H            8.73862900000000       -0.13640300000000       -0.00905200000000
H            8.77213500000000       -2.74646500000000       -0.33880500000000
H           10.59285700000000       -4.54232700000000       -0.42945800000000
H           16.03491800000000       -4.47137700000000        0.24045900000000
H           17.85088400000000       -2.66453500000000        0.35099900000000
H           17.50694600000000        2.57012700000000       -0.86821800000000
H           15.54672100000000        4.45383900000000       -0.79041700000000
H           11.86374200000000        5.38020600000000       -1.46047000000000
H           11.93003200000000        7.83607000000000       -1.19584600000000
H           13.17275900000000        8.85385900000000        0.69257700000000
H           14.35470400000000        7.40811700000000        2.32325300000000
H           14.29319700000000        4.94981000000000        2.07847700000000
H           10.32049300000000        4.45590700000000        0.72192100000000
H            8.63646900000000        2.50809400000000        0.61537500000000
H           13.10304000000000       -4.96727800000000       -2.41128900000000
H           13.17064300000000       -7.43553900000000       -2.55654400000000
H           13.41876100000000       -8.79842700000000       -0.49995900000000
H           13.59956900000000       -7.68903600000000        1.71028600000000
H           13.53222700000000       -5.22179100000000        1.87179100000000
Zn          28.38037900000000       -0.04882700000000        0.00224100000000
C           31.71694200000000        0.10754800000000       -0.00138500000000
C           31.05283300000000        1.26421600000000       -0.07906200000000
C           31.70251100000000        2.56626500000000       -0.17300400000000
C           30.76068200000000        3.49116400000000       -0.18024200000000
C           29.45585300000000        2.82218200000000       -0.08973700000000
N           29.63413900000000        1.40670500000000       -0.03070800000000
C           28.26565000000000        3.45135100000000       -0.01716900000000
C           26.97201700000000        2.72945500000000        0.10206500000000
C           25.68147400000000        3.39558800000000        0.31610400000000
C           24.74675800000000        2.46747600000000        0.33361400000000
N           26.83139900000000        1.44422000000000       -0.01381900000000
C           25.43189400000000        1.19801500000000        0.12289200000000
C           24.83732000000000       -0.00020900000000        0.00005800000000
C           25.59833400000000       -1.24883800000000       -0.23329000000000
C           25.06136600000000       -2.37536400000000       -0.68483600000000
C           26.10510100000000       -3.38099400000000       -0.68644600000000
C           27.21111900000000       -2.80375200000000       -0.23165900000000
C           28.49622700000000       -3.51601100000000       -0.01117600000000
C           28.47710700000000       -4.99628000000000        0.08259800000000
C           29.13637000000000       -5.78123300000000       -0.87864100000000
C           29.09766800000000       -7.17633600000000       -0.79404200000000
C           28.39611300000000       -7.79595400000000        0.24400700000000
C           27.73007000000000       -7.02141500000000        1.19803700000000
C           27.76686400000000       -5.62595500000000        1.11763200000000
C           29.66127500000000       -2.85049200000000        0.10653600000000
C           30.97363400000000       -3.44298600000000        0.35983100000000
C           31.83522700000000       -2.44457500000000        0.35069200000000
C           31.08224500000000       -1.21582200000000        0.10553200000000
N           29.81409400000000       -1.43991900000000       -0.03776700000000
N           26.98136000000000       -1.42716100000000        0.07542800000000
C           28.22686900000000        4.92886000000000       -0.04494600000000
C           28.32785700000000        5.61464500000000       -1.26521500000000
C           28.28976500000000        7.01225100000000       -1.28914300000000
C           28.14984900000000        7.72970700000000       -0.09726600000000
C           28.04800100000000        7.05060000000000        1.12064500000000
C           28.08638200000000        5.65310700000000        1.14884200000000
H           32.80034300000000        0.13625100000000       -0.00313000000000
H           32.76683700000000        2.75817000000000       -0.21923800000000
H           30.94611500000000        4.55627500000000       -0.23182600000000
H           25.50405400000000        4.45630300000000        0.43437900000000
H           23.68808800000000        2.64636500000000        0.46635800000000
H           24.03202600000000       -2.53041900000000       -0.97900800000000
H           25.99225100000000       -4.41573200000000       -0.98307500000000
H           29.67523000000000       -5.31213100000000       -1.69272100000000
H           29.60894000000000       -7.77716900000000       -1.53498400000000
H           28.36621299999999       -8.87599700000000        0.30746400000000
H           27.18426800000000       -7.50242500000000        1.99937900000000
H           27.24577500000000       -5.03580800000000        1.86157800000000
H           31.21847900000000       -4.48346700000000        0.52774800000000
H           32.90250300000000       -2.53286500000000        0.50587900000000
H           28.43593200000000        5.06688000000000       -2.19333500000000
H           28.36832900000000        7.53912000000000       -2.23127700000000
H           28.12021100000000        8.81142200000000       -0.11745300000000
H           27.93940300000000        7.60710400000000        2.04253600000000
H           28.00674500000000        5.13517400000000        2.09675600000000
C           21.37340600000000        0.00110200000000        0.00849000000000
C           20.16446700000000       -0.01235300000000        0.00004300000000
C           18.74293800000000       -0.00353300000000       -0.01194000000000
C           17.53126800000000        0.00390500000000       -0.00107700000000
C           22.79001100000000       -0.00557300000000        0.00902300000000
C           24.01070600000000        0.00390500000000       -0.00107700000000
118
 energy: -195.025544388763 gnorm: 0.826761410555 xtb: 6.5.1 (b24c23e)
Zn          13.15975594329162        0.04808144771239        0.00431347120064
C            9.82222587460079       -0.10248734944432       -0.00540032882723
C           10.48928279329241       -1.26175444771092       -0.13398608259047
C            9.83556834157685       -2.55485966955233       -0.28413547996275
C           10.78078796865785       -3.48151510670294       -0.33164815629939
C           12.08140941025841       -2.81333485126713       -0.21214991708595
N           11.89956913170871       -1.40945950650621       -0.09248627117036
C           13.27800512488145       -3.44660555662640       -0.16658455111342
C           14.56445152836310       -2.73840987065650       -0.01674579573204
C           15.85340880912111       -3.40962456279549        0.16793996350693
C           16.79304962904076       -2.47572613892590        0.22592433155695
N           14.70942824554494       -1.44243261950450       -0.07588574788161
C           16.08554484219124       -1.21496873043264        0.07139787639667
C           16.51988562369230        0.00272921745995        0.00011806007316
C           15.92261262924408        1.25888111647696       -0.17740784930500
C           16.47795701600081        2.40834465104568       -0.58218483486967
C           15.44036536883908        3.40790877015636       -0.54039702298324
C           14.32269158936930        2.80788737869917       -0.10708888379883
C           13.04611174786776        3.51132900897453        0.14109820026005
C           13.06253713367804        4.98789349944169        0.29914176115739
C           12.40292247033652        5.81409192291706       -0.62589611022817
C           12.44183840340149        7.20289441802460       -0.48091480425066
C           13.14282923426764        7.77662898556419        0.58218237224220
C           13.80827397487714        6.96179802611456        1.50092722022731
C           13.77181200450479        5.57252966519773        1.36019355660410
C           11.87642881086441        2.84216118591849        0.23027731616361
C           10.56781549949524        3.42475202438446        0.50876670947966
C            9.70150988673959        2.42365918565906        0.45625901270958
C           10.45133031311335        1.20651978364491        0.15806362464331
N           11.72590159636830        1.44328904377022        0.02545081378343
N           14.55869187369395        1.42593749620403        0.13586128029448
C           13.31246361987587       -4.92368927533515       -0.25891785479312
C           13.21114224150084       -5.55567681244144       -1.50702026076314
C           13.24927621372840       -6.94956657586008       -1.59136625201342
C           13.38909578925901       -7.71760348453815       -0.43275980813655
C           13.49084650601617       -7.09240832825974        0.81245551678876
C           13.45263893308632       -5.69887292339061        0.90139790563639
H            8.73865922544309       -0.13601109743775       -0.00894147805105
H            8.77215927859267       -2.74566144392860       -0.33875159806295
H           10.59379960678364       -4.54235049784419       -0.42944595313353
H           16.03417115353962       -4.47159346353343        0.24040187886090
H           17.85078626023470       -2.66335876012329        0.35097472439788
H           17.50688464382389        2.57015543629256       -0.86831578403516
H           15.54707145916791        4.45368409268151       -0.79054346308698
H           11.86383851462728        5.38007670481704       -1.46037511480806
H           11.93004050133842        7.83602424908533       -1.19586173321685
H           13.17276546724078        8.85386941715412        0.69257172052328
H           14.35469564832983        7.40806973671173        2.32325306743852
H           14.29310990483170        4.94971415064081        2.07834074833280
H           10.32138997669329        4.45588095564692        0.72180207989598
H            8.63633963763021        2.50741741275301        0.61527124795821
H           13.10306714014447       -4.96718246583820       -2.41113312369993
H           13.17064707009686       -7.43551014491756       -2.55654671610305
H           13.41876389862005       -8.79843411899120       -0.49995993161946
H           13.59956101393191       -7.68901143695929        1.71029337853753
H           13.53220177773299       -5.22168524889346        1.87164911924412
Zn          28.37922125334312       -0.04863707568466        0.00221292871185
C           31.71674768562729        0.10220458005939       -0.00095350689778
C           31.04968630032008        1.26596856227810       -0.07908015366179
C           31.70340369887557        2.56437054704253       -0.17294058292113
C           30.75818172258110        3.49221714799873       -0.18017023091233
C           29.45756151718308        2.81948464857857       -0.08979860987687
N           29.63940499307617        1.41172447818760       -0.03120780850328
C           28.26097151241136        3.45017294732331       -0.01677788442801
C           26.97450660345615        2.73616684082988        0.10217431300379
C           25.68559056192998        3.39870964334113        0.31582365057750
C           24.74592587099785        2.46312979822701        0.33319902961923
N           26.82955090822976        1.44395490191180       -0.01319695504165
C           25.45356417327347        1.21034640562902        0.12405358915098
C           25.02128657537414       -0.00442038585623       -0.00027897341875
C           25.61649655766440       -1.25055231813322       -0.23196863266341
C           25.06100749284944       -2.38119562249953       -0.68621488335253
C           26.09861736503313       -3.38164713916454       -0.68787037291704
C           27.21627003497010       -2.80100722306168       -0.22892371463304
C           28.49286956444968       -3.51456060022096       -0.01151157617898
C           28.47643457904636       -4.99659410139130        0.08226797872905
C           29.13604957713749       -5.78184618139109       -0.87777300826108
C           29.09713363446793       -7.17563391891475       -0.79323348372265
C           28.39614277667770       -7.79498950092166        0.24394817422623
C           27.73069798401067       -7.02082049030937        1.19720830550656
C           27.76715981412857       -5.62675217930567        1.11693240417262
C           29.66253882686211       -2.84989908592921        0.10663820975668
C           30.97115870156868       -3.44402928655996        0.35956841315922
C           31.83746138929565       -2.44160270415382        0.35058020646859
C           31.08764183816019       -1.21265803631347        0.10551562381574
N           29.81306882524383       -1.44344582746789       -0.03725334365017
N           26.98028274054541       -1.43090536808465        0.07380978616691
C           28.22650834725653        4.92987099637906       -0.04488724650840
C           28.32782972337483        5.61545886466108       -1.26437006491969
C           28.28969578319954        7.01169618828006       -1.28811139914272
C           28.14987619927729        7.72869984915912       -0.09724848543116
C           28.04812556262550        7.05002408536899        1.11964555420364
C           28.08633302171751        5.65394136201966        1.14799425732251
H           32.80031278136127        0.13585449205182       -0.00303651367883
H           32.76681274745646        2.75736477020754       -0.21921950581455
H           30.94517234393425        4.55629794766995       -0.23181293879752
H           25.50480136624899        4.45652126194659        0.43433181643160
H           23.68818634077567        2.64518749613472        0.46628242217944
H           24.03208422941858       -2.53043805931934       -0.97910516522159
H           25.99189987842783       -4.41557107786030       -0.98319415032985
H           29.67513345612667       -5.31200594704192       -1.69262051900759
H           29.60893150097843       -7.77712259755352       -1.53499772954513
H           28.36620652375525       -8.87600719064296        0.30745825878244
H           27.18427637242630       -7.50237779333035        1.99938112467793
H           27.24586208901821       -5.03570638986773        1.86144604841138
H           31.21758211823482       -4.48343593018947        0.52763036811409
H           32.90263234924428       -2.53218465675300        0.50580473439556
H           28.43590487026244        5.06677778622524       -2.19318346530977
H           28.36832494290333        7.53909131566932       -2.23128098822786
H           28.12020809523680        8.81142915476110       -0.11745362056361
H           27.93941099205087        7.60707913234744        2.04254229247387
H           28.00677019707096        5.13507448603132        2.09660969702459
C           21.37964115949330        0.00119941826652        0.00844770567485
C           20.15812291283656       -0.01238615751684       -0.00003944876703
C           18.78796958670261       -0.00295247758900       -0.01168924548105
C           17.70767864379646        0.00924204624964       -0.00147214703711
C           22.74661437596182       -0.00638094460110        0.00954918679091
C           23.83026610888320        0.00010661806128       -0.00172877501562
118
 energy: -195.210185262132 gnorm: 0.494190526652 xtb: 6.5.1 (b24c23e)
Zn          13.15904664752657        0.04364535835568        0.00358295983070
C            9.82271959681503       -0.08717798718185       -0.00340709249362
C           10.49276884187079       -1.26256117865985       -0.13400713080370
C            9.83538208668056       -2.54917548963468       -0.28353333531792
C           10.78894000599538       -3.48334807836061       -0.33139960897953
C           12.07936086765798       -2.81047842799894       -0.21246404795027
N           11.87911190830987       -1.42906226747969       -0.09600586895558
C           13.28764302418133       -3.44829255518712       -0.16579525445416
C           14.55005338076895       -2.76878808914759       -0.01795331321934
C           15.83957800601232       -3.42480871198221        0.16616322686952
C           16.78137420956614       -2.47361578949899        0.22457168712327
N           14.69241378737614       -1.46432201948112       -0.06964201216999
C           16.03940775884245       -1.24029935340673        0.07593771266231
C           16.45995610227267        0.02008160671444        0.00027136243613
C           15.87562889785901        1.27001973532602       -0.17436582903099
C           16.47132906664558        2.43237534556818       -0.58352236910964
C           15.45809939604870        3.41444485644785       -0.54138147384356
C           14.31046563845664        2.80839751123319       -0.09908858731023
C           13.05660939811368        3.50667721455645        0.14103909073350
C           13.06964548185133        4.98743254362416        0.29543344942414
C           12.40448381665835        5.81458821328327       -0.62153303868130
C           12.44368413316301        7.19954613629038       -0.47751222935931
C           13.14273547577836        7.77289434685547        0.58180743702497
C           13.80553708715218        6.95955424640979        1.49770283049042
C           13.77167105342189        5.57468165235352        1.35624373095966
C           11.87410472544516        2.84209334544372        0.23109783798470
C           10.57290231951408        3.42323055109291        0.50707487106867
C            9.69211632879314        2.41423293933630        0.45503663886184
C           10.43231456977879        1.20036103857994        0.15710724929322
N           11.72133186073999        1.45514042346885        0.03150248546966
N           14.54132097332383        1.44762335222734        0.12837483743200
C           13.31545597884374       -4.92841584567142       -0.25883406673351
C           13.21109343404586       -5.55900198613573       -1.50339968236081
C           13.24928711134716       -6.94813915188351       -1.58736845647168
C           13.38899574388178       -7.71422517207770       -0.43254914947270
C           13.49035208358460       -7.09081147815976        0.80882929530315
C           13.45355200496351       -5.70221698622809        0.89786280923795
H            8.73918512752098       -0.13031261591627       -0.00745295532457
H            8.77223882329371       -2.73744171826988       -0.33821060855305
H           10.60387519233992       -4.54335682270522       -0.42936012955027
H           16.02753288061308       -4.47982859790910        0.23994635594658
H           17.84439743041471       -2.65078210619545        0.35012948427810
H           17.50415309687141        2.57257295597038       -0.86928182755376
H           15.55387318426765        4.45624013699894       -0.79329472120424
H           11.86567212906613        5.37954524677271       -1.45798574108678
H           11.93116800702584        7.83400616452046       -1.19443815958234
H           13.17279069927278        8.85207047830037        0.69229474824220
H           14.35338953880720        7.40662892754473        2.32162872402759
H           14.29175377075193        4.94999705623776        2.07602926977170
H           10.33060121171592        4.45507495186951        0.72047231790295
H            8.63116131005677        2.50082884367304        0.61467524774750
H           13.10352300683946       -4.96755394403213       -2.40801598864068
H           13.17078519446834       -7.43440950552543       -2.55472114934423
H           13.41873420316178       -8.79680293026901       -0.49988966257183
H           13.59922034062654       -7.68790079130017        1.70869484364338
H           13.53192543706200       -5.22191673933510        1.86875535067362
Zn          28.37989601049239       -0.04416375456401        0.00167903477958
C           31.71625175645664        0.08681484781249        0.00037860572816
C           31.04619744563005        1.26677681731533       -0.07906297894648
C           31.70358900463518        2.55866142461685       -0.17258084521894
C           30.75002754414791        3.49403659028590       -0.17983687852520
C           29.45961535477178        2.81664661020857       -0.09023351139955
N           29.65986416867686        1.43146039625231       -0.03386750014026
C           28.25133576603514        3.45183719710510       -0.01591424290488
C           26.98891781791774        2.76661683442532        0.10231976895530
C           25.69943572582499        3.41398464655177        0.31473754704201
C           24.75756529662863        2.46119726806447        0.33176377319545
N           26.84646654773985        1.46563161465257       -0.00591382147478
C           25.49921037024831        1.23563007681349        0.12930942511712
C           25.07943866051617       -0.02077747968467       -0.00231692782537
C           25.66296331909542       -1.26167819058210       -0.22957656677218
C           25.06750011169639       -2.40528329777161       -0.68860524664821
C           26.08083881878796       -3.38813407889473       -0.68912960975443
C           27.22846139909735       -2.80180628902940       -0.22092336811922
C           28.48235268737497       -3.50989297439281       -0.01136124365638
C           28.46932174629760       -4.99596732662617        0.07858433563486
C           29.13448757858094       -5.78252971561545       -0.87343203022198
C           29.09528831320021       -7.17243593137922       -0.78968494965647
C           28.39623626422433       -7.79124180590482        0.24373890989315
C           27.73343422660226       -7.01843870533733        1.19408691789265
C           27.76729997128090       -5.62872949568916        1.11289532878352
C           29.66485788258401       -2.84985519786284        0.10746407060308
C           30.96607118679315       -3.44243365670994        0.35794748292249
C           31.84685397514224       -2.43213256914972        0.34977091516127
C           31.10665814496976       -1.20645723616439        0.10483041366902
N           29.81762698673623       -1.45554350721939       -0.03171353849629
N           26.99745931840276       -1.45218384483676        0.06535936658597
C           28.22352323780129        4.93459543100214       -0.04459558190513
C           28.32787961845963        5.61862510097877       -1.26060637701165
C           28.28968471693348        7.01009717537826       -1.28417616303285
C           28.14997634737811        7.72531572688472       -0.09718106251945
C           28.04861930636979        7.04858673323822        1.11595677037102
C           28.08542039794123        5.65743669119797        1.14461141184315
H           32.79978621134727        0.13009416516668       -0.00178984312698
H           32.76673234151287        2.74912749071474       -0.21903066187389
H           30.93509625957988        4.55729871576690       -0.23167877230416
H           25.51144795067153        4.46478366402623        0.43424498635564
H           23.69456665942746        2.63273272540726        0.46488896744168
H           24.03474873611995       -2.53288009230882       -0.98021308047199
H           25.98510833850166       -4.41800944255861       -0.98605006510469
H           29.67330024262049       -5.31157856315464       -1.69020630168342
H           29.60780452159157       -7.77516778296742       -1.53348413246716
H           28.36618111956862       -8.87419766964761        0.30726251297126
H           27.18558174811302       -7.50086785968342        1.99782314312894
H           27.24721739749646       -5.03588917114006        1.85912748688813
H           31.20836965977940       -4.48257190475287        0.52634098271564
H           32.90780941941203       -2.52557723416152        0.50550059015578
H           28.43545016835474        5.06701376447739       -2.19005013234171
H           28.36818781307505        7.53791272602998       -2.22950153481752
H           28.12023804003893        8.80979641359478       -0.11745050626018
H           27.93975072232039        7.60603868978588        2.04090050945120
H           28.00704593869182        5.13543101007809        2.09373206374686
C           21.35539262499561        0.00078084285033        0.00864363270946
C           20.18214225473838       -0.01212948432563        0.00045983244921
C           18.90913015822419        0.00197010152334       -0.01143945867831
C           17.68036170936844        0.02915231029483       -0.00505511760738
C           22.62902991828925       -0.01298712409002        0.01427664056956
C           23.85766763322633       -0.01946525571744       -0.00789874010382
118
 energy: -195.283517744142 gnorm: 0.320822654954 xtb: 6.5.1 (b24c23e)
Zn          13.15283986151182        0.03536789463059        0.00250646755094
C            9.82087574214949       -0.07140258612583       -0.00121653432452
C           10.49029019742925       -1.26451354778044       -0.13495730536783
C            9.83346688167141       -2.54385988255007       -0.28299016984354
C           10.79432045628845       -3.48591398291598       -0.33174069553733
C           12.07146354356619       -2.81360033741268       -0.21441273501488
N           11.85276342129810       -1.45382956385869       -0.10103390382025
C           13.28910936938496       -3.46001661932442       -0.16505267962144
C           14.52798722881954       -2.81643836427589       -0.01659512958019
C           15.81635983822766       -3.45156154024718        0.16170468137945
C           16.75103138932945       -2.47381390210711        0.22372925551531
N           14.66821327825241       -1.49631000067986       -0.05225720706342
C           15.99494772478226       -1.25881067736487        0.08274578038632
C           16.42631688877513        0.04123353135556       -0.00189404353360
C           15.82362789724712        1.29071860719590       -0.17118387230024
C           16.45496463827929        2.46490380410392       -0.58083431110519
C           15.47374561924729        3.43544001584739       -0.53502524725051
C           14.29508264932327        2.82719551075576       -0.09194859549060
C           13.06365513019931        3.50548125814860        0.14116932610937
C           13.08040534143532        4.98675607538064        0.28841205698181
C           12.40725831918052        5.81336938892119       -0.61763949403666
C           12.44500485404338        7.19449872225745       -0.47359506583826
C           13.14254135091187        7.76847002720533        0.58148149410886
C           13.80316728682049        6.95615577508799        1.49405141680630
C           13.77510976684107        5.57549904116862        1.34901493834991
C           11.86733814433071        2.84076184110261        0.23450694924530