590
 energy: -1044.023774267490 gnorm: 0.000767372921 xtb: 6.5.1 (b24c23e)
C          116.20981720566752       -0.08362292807180       -0.04102782129107
C          116.82204728735960       -1.29522719261815       -0.33412133246313
C          116.17355800902553       -2.51927191807119       -0.66090880189942
C          117.13784076178899       -3.46570513979271       -0.86349974485696
C          118.40673839215349       -2.85258640471754       -0.65571152655348
N          118.16563681418708       -1.54353542532749       -0.35079347376011
C          119.67196130580413       -3.44257601729955       -0.75830408761375
C          119.70772895744425       -4.88897316236370       -1.07699469108608
C          120.34488063599046       -5.34163677835051       -2.23668534734127
C          120.37323415210942       -6.68972035891384       -2.53672100848958
C          119.77003423060727       -7.61815349801609       -1.68166846708943
C          119.81609312849764       -9.05171788234668       -2.02251906924533
O          120.34601930130520       -9.48756170658190       -3.01235612144318
C          119.13575829656739       -7.16786416461257       -0.52133692392885
C          119.10254773137306       -5.81695818146413       -0.22457356560160
C          120.88635333473941       -2.77314363132976       -0.58384235655697
C          122.18420797306794       -3.42341050656853       -0.62675495304383
C          123.10235192795487       -2.45751316647661       -0.41840059411710
N          121.03718383438900       -1.44452615274631       -0.33126694447057
C          122.36430879450857       -1.22189376005945       -0.23955695995215
C          122.99818753728076        0.01761169416978       -0.02136198113042
C          122.35963701533717        1.25175888567176        0.20237073346324
C          123.00068664479002        2.50384082872465        0.39807294244093
C          122.03200752110500        3.44583105912563        0.60660590391859
C          120.76822720169328        2.79448173114499        0.55360670122029
N          121.01782992122911        1.47286550855495        0.29578118965205
C          119.50425751521182        3.37599084662763        0.70388543228531
C          119.46831128808448        4.82324071752700        1.01503413199729
C          120.07909560730657        5.31479336861678        2.17328685177028
C          120.04110404036238        6.66474388524096        2.46375084352206
C          119.39656990051716        7.55683435024571        1.60024368412599
C          119.37339622318845        8.99327377499176        1.93067003528250
O          119.88697281489979        9.46195428649277        2.91421293559905
C          118.78816509233381        7.06788540585091        0.44157212084475
C          118.82202145735957        5.71519489539233        0.15401249353106
C          118.28863509377560        2.69290648350019        0.58362162707561
C          116.98337710386880        3.29826987727981        0.80081698484763
C          116.07232861680114        2.32773713512356        0.58857234866423
C          116.81982102227386        1.12795386521678        0.25482576534435
N          118.15146492212071        1.38291830778888        0.27227302635093
H          115.12455867271834       -0.09484270718431       -0.04447485312002
H          115.10512226243384       -2.64434144724994       -0.73479228269166
H          116.98921180550195       -4.49640825864085       -1.14174284955665
H          118.88907812891743       -0.85643042392520       -0.16704907475933
H          120.80196441211022       -4.62347390281282       -2.90794148789371
H          120.86021176429013       -7.04795051702594       -3.43735242873972
H          119.31475859742935       -9.71232374756220       -1.28328141137501
H          118.66925698136350       -7.88153825220885        0.15000095036687
H          118.62209801360753       -5.47279948896024        0.68448288042646
H          122.34822685959763       -4.47764124734713       -0.78001381652870
H          124.17596124627455       -2.54735172427881       -0.37702668282472
H          124.06775911378347        2.65530831028647        0.37517994233719
H          122.17682919454815        4.50087334288503        0.77208031867344
H          120.29748741785286        0.76658090227644        0.18654309444032
H          120.56616641394594        4.62475889590528        2.85309573232282
H          120.50661030868912        7.05227549522722        3.36362768392118
H          118.83604871878184        9.62297354595574        1.18982701142413
H          118.28950868824127        7.75336049894131       -0.23597594521410
H          118.36149082071215        5.34109530255071       -0.75337563996490
H          116.81261053978662        4.32256345978751        1.09047227472840
H          114.99711072414361        2.38461507522644        0.65326717325241
C          251.28978796052516        0.06054778036940       -0.01370300402459
C          250.67767908144950        1.23362902757400        0.40806140326307
C          251.32609389170736        2.43945360395592        0.79688578926299
C          250.36215688119370        3.34099305855890        1.14995033162586
C          249.09360735055915        2.71102783521556        0.99791132633462
N          249.33449175553420        1.44750877367983        0.53941010068000
C          247.82881811219565        3.26112169108601        1.23648960209922
C          247.79450917593689        4.64798398287025        1.75678469988365
C          247.15929328271790        5.66104971522168        1.03171901312646
C          247.13159820453117        6.95423181176585        1.51671379493924
C          247.73353154321086        7.26437001940723        2.74082300575646
C          247.68781018712855        8.65116436201009        3.23880371474804
O          247.16007691608547        9.55784459719077        2.64719936382993
C          248.36644704499648        6.25295849163562        3.46740692800415
C          248.39910482081436        4.95931175690816        2.97809378039873
C          246.61408566000489        2.60353197405617        1.02382697630954
C          245.31650726971804        3.17547545310457        1.33740844495828
C          244.39823405183043        2.24737764651543        0.99888081064932
N          246.46296131247561        1.34597520092529        0.52641204512419
C          245.13593933456534        1.10704986047558        0.48991525204210
C          244.50189070660130       -0.06446164526328        0.03056185893883
C          245.13929282788530       -1.22909828449500       -0.43602182279022
C          244.49654668997817       -2.39719142923851       -0.92553260718071
C          245.46486433261933       -3.29750642385709       -1.27302799128003
C          246.73044065568061       -2.70909794655947       -0.99648278405326
N          246.48172569985195       -1.45687908117013       -0.50091552382877
C          247.99463617035130       -3.26898513175506       -1.21207890322558
C          248.03128289362667       -4.65275663734419       -1.73815035587823
C          247.44790165444573       -5.70148780186895       -1.01992379725406
C          247.48667191701765       -6.99155680449130       -1.51240429145895
C          248.10440326564625       -7.26340436363146       -2.73772105741769
C          248.12904608932874       -8.64776375516420       -3.24357841977255
O          247.64020490423235       -9.58192585697187       -2.66117890363966
C          248.68552282925765       -6.21657622459243       -3.45760008762018
C          248.65111591176455       -4.92586296666939       -2.96123375163833
C          249.21063955526466       -2.62027882761317       -0.96840816483051
C          250.51707466790032       -3.23770518403903       -1.13983164070178
C          251.42823750039716       -2.30252440948721       -0.80487168551063
C          250.67991749644446       -1.11925531053540       -0.41821440765952
N          249.34773775694640       -1.35075443088245       -0.51980885860794
H          252.37495445841051        0.07640712664994       -0.02348836839250
H          252.39421417717350        2.58705122248341        0.79568309863161
H          250.51057290604470        4.35702503010673        1.47786766143677
H          248.61109242145298        0.76955496978262        0.32416028520938
H          246.70302373434606        5.42654811897776        0.07669423243829
H          246.64588295221276        7.74664979081409        0.95746187270409
H          248.18710462105651        8.79963877510155        4.22010043532732
H          248.83221472570727        6.48371349700578        4.42002157556498
H          248.87862919929540        4.17408714218622        3.55181364666728
H          245.15260534853294        4.14851149986030        1.77111179582539
H          243.32477498348422        2.30075736167753        1.08392181253050
H          243.42852418458045       -2.52060134394490       -1.00430653963933
H          245.31844563324995       -4.27862227351942       -1.69425148404546
H          247.20303318906431       -0.79584751967422       -0.23179598451541
H          246.98176068936263       -5.49761908837650       -0.06250081287748
H          247.04237444584655       -7.81107331192341       -0.95774714271268
H          248.64306108321523       -8.76680816633878       -4.22122027975532
H          249.16334533567533       -6.41777088792047       -4.41092200201780
H          249.09044495544597       -4.11357555170051       -3.52919899507496
H          250.68867930462466       -4.25331587243548       -1.45817099216838
H          252.50421064733490       -2.37863296629295       -0.80055916993933
C          128.20175166605799        0.07349903133154       -0.03908392838919
C          126.97356923038488        0.06630854196095       -0.03448680013201
C          125.62855888197723        0.05431355937464       -0.02980013267591
C          124.40496581935065        0.03732184662336       -0.02492997445750
C          129.54662742488637        0.07649675691957       -0.04209282018068
C          130.77050419303006        0.07358529654948       -0.04186730078233
C          144.24375645195232       -0.01053297890742       -0.02451054627524
C          143.01477633366591       -0.00496182808800       -0.02420952050292
C          141.67116674688916        0.00387488516295       -0.02646387715865
C          140.44663596773324        0.01430883176210       -0.03043999442365
C          145.58737135083032       -0.01548719764880       -0.02245302554776
C          146.81198683030425       -0.02076893083085       -0.01983994557748
C          160.28980249844506       -0.02375839081943       -0.01460150441283
C          159.06068762721458       -0.02299053534648       -0.01343188745494
C          157.71700227742377       -0.02198521804884       -0.01150942114624
C          156.49230044717234       -0.01899988365629       -0.01176103385537
C          161.63348859836148       -0.02383402228477       -0.01599933914427
C          162.85819896042801       -0.02516494362402       -0.01468812115843
C          176.33949415833357       -0.01771347186381       -0.01253708333731
C          175.11028120646361       -0.01651265048894       -0.01274043284970
C          173.76653283977021       -0.01527930529997       -0.00981949820343
C          172.54182653230143       -0.01264307561420       -0.00935136430522
C          177.68325126869522       -0.01747105210432       -0.01394630581151
C          178.90802535605087       -0.01956396325969       -0.01306144140591
C          192.39033850961772       -0.01925473662457       -0.01277770721888
C          191.16124422845343       -0.01730919403099       -0.01186405629092
C          189.81751530537895       -0.01576776167980       -0.00927170760261
C          188.59277504674057       -0.01254927344844       -0.00864087139447
C          193.73407184603769       -0.01934847319677       -0.01422351261952
C          194.95880550067221       -0.02126051457041       -0.01323227202030
C          208.43979119108968       -0.01616696605375       -0.01209249388460
C          207.21065603347125       -0.01470021595852       -0.01083535163844
C          205.86699811952010       -0.01384489900394       -0.00850814036988
C          204.64233795594575       -0.01089553088934       -0.00795092518213
C          209.78347615073884       -0.01644422818913       -0.01389419805017
C          211.00819130791174       -0.01844059361548       -0.01337541678372
C          224.48559342164859       -0.02544304809528       -0.00730081252717
C          223.25657615976425       -0.02226860756798       -0.01085798465411
C          221.91294924818939       -0.01856000596564       -0.00614351308254
C          220.68830951868816       -0.01180072641421       -0.00682158860565
C          225.82920380051519       -0.03294303951818       -0.00336944804795
C          227.05374246619661       -0.04138303842311        0.00024226141578
C          240.52594199059266       -0.10515985099601        0.03299914410692
C          239.29785889507139       -0.10689741599590        0.03221257796354
C          237.95271220068690       -0.10489066191538        0.03219966542554
C          236.72899968258415       -0.09739618861228        0.02972138512911
C          241.87121838393202       -0.09756799617552        0.03294802043870
C          243.09475307523766       -0.08428185901623        0.03295586992000
C          132.17637236986403        0.06730123531859       -0.04106696059691
C          132.80857431587873        1.00430626750885       -0.88038689361161
C          132.16560914349907        1.92551643780842       -1.74698408872667
C          133.13495402278309        2.65574411077976       -2.37838989551178
C          134.39884024497852        2.20732619837318       -1.90640980733138
N          134.15096566947193        1.20258059180843       -1.01057482075713
C          135.66227410537428        2.67453932870293       -2.29039919944315
C          135.68244066714612        3.79352080817850       -3.26275224622398
C          136.28388365809568        3.63028318151681       -4.51447789486693
C          136.29755397408385        4.67085823004287       -5.42299906020728
C          135.71561953173202        5.90097311956319       -5.09911826727857
C          135.74541660988098        6.99686527699670       -6.08517542411539
O          136.24446621143667        6.90085003024610       -7.17695570416581
C          135.11761227580581        6.06651018483934       -3.84762440927239
C          135.09858539527161        5.02186897774585       -2.94060111705891
C          136.88580486022190        2.17737583432389       -1.83784430415140
C          138.17356274201794        2.73499543208674       -2.21214813290360
C          139.10825180351603        1.99577291094907       -1.58023413855357
N          137.05918958497449        1.13461555764356       -0.97987348386201
C          138.39018266814273        0.99502811285673       -0.81567795685642
C          139.04221016265549        0.02248081625749       -0.03065523741535
C          138.40897629822081       -0.95455856005472        0.76219630965217
C          139.05129559204599       -1.95830222567531        1.53231127714177
C          138.08190817043072       -2.69234249782789        2.15910304089788
C          136.81853082734031       -2.15022814198349        1.79666443294760
N          137.06704882816521       -1.10856487694474        0.94359639166738
C          135.55553006261005       -2.59750008209255        2.20367193039116
C          135.53389488956071       -3.73142175501074        3.15838787341064
C          134.92221758356138       -4.93767240477156        2.80551238176282
C          134.90162660473428       -5.99910679762275        3.69254972396769
C          135.48855278269355       -5.87347813426031        4.95395401989685
C          135.47800937800460       -6.98835475589805        5.91891958405812
O          135.97318638678686       -6.92862199527055        7.01508128456540
C          136.09831983795041       -4.66560995023410        5.30859949641639
C          136.12358775811566       -3.60789450463110        4.42015130045495
C          134.33179569829815       -2.06723533177277        1.78929997525820
C          133.04448931884380       -2.51918540389138        2.28734147388579
C          132.10979030455604       -1.77590426041958        1.66024434190639
C          132.82742994779261       -0.86634424678696        0.78901808256249
N          134.15881099020419       -1.05628894156391        0.89509230076268
H          131.09789438652413        2.00742351456060       -1.87076067262037
H          132.98883343522195        3.42965358315709       -3.11401322816478
H          134.86852620660613        0.67726621160168       -0.52228032111085
H          136.72500630228586        2.67425197989198       -4.77265956814439
H          136.75650057534179        4.55027155108004       -6.39840982679234
H          135.26235985597458        7.93526051485426       -5.73850610676250
H          134.66779940096959        7.01888161705948       -3.58636186665352
H          134.64526767201818        5.15804584508364       -1.96511518466904
H          138.32022643904364        3.58525752454299       -2.85812412388052
H          140.18095613053200        2.10101466166358       -1.60609457348484
H          140.11867934468276       -2.09778953420178        1.58909951280621
H          138.22738728090380       -3.54052373166550        2.80780227713935
H          136.34991856393262       -0.53967303004659        0.50615684781438
H          134.47658062088678       -5.04171275201198        1.82268902412824
H          134.42952950860774       -6.93379602483389        3.40791708104054
H          134.96961617738685       -7.90498664239244        5.55104960761275
H          136.54740087946016       -4.57548051188612        6.29187755915810
H          136.58462839171992       -2.66850917665291        4.70383373487488
H          132.89786032699055       -3.28908521939505        3.02728662037805
H          131.03743712116102       -1.81358014148688        1.76535062585635
C          148.21629437347244       -0.02104644754464       -0.01981518521064
C          148.84382157591543        0.90427912241212       -0.87690069760447
C          148.19616456696804        1.80645669153663       -1.75945793559523
C          149.16154578926916        2.53726951887873       -2.39659252476217
C          150.42727151533384        2.10824137686035       -1.91217066242871
N          150.18468975489793        1.11272806079362       -1.00433993276305
C          151.68751322246496        2.58617280734440       -2.29378503429178
C          151.69958224770366        3.69896720110320       -3.27333279116445
C          152.31133106202682        3.53645389558405       -4.52012706570268
C          152.31889968929337        4.57257222473758       -5.43383451872886
C          151.71995108836470        5.79718332470414       -5.12039660973847
C          151.74465199193921        6.88873120102696       -6.11158335724839
O          152.25649378139457        6.79430889302908       -7.19749988022344
C          151.11077143617365        5.96172852312647       -3.87420553597460
C          151.09828321649979        4.92166611731874       -2.96183502651626
C          152.91469652374377        2.10649422642542       -1.83227147925119
C          154.19770833558567        2.67524326205166       -2.20604150814637
C          155.13831080558322        1.94830580879404       -1.56857347180113
N          153.09648940926098        1.07050114155537       -0.96776961684028
C          154.42851286655267        0.94455794000446       -0.80047397284892
C          155.08792785286786       -0.01909050467234       -0.01047638370808
C          154.46055059423674       -0.99451973611580        0.78924811932464
C          155.10835040504858       -1.99020204495791        1.56485260931022
C          154.14302371167244       -2.72273171112936        2.19992671402207
C          152.87694013469965       -2.18744202877015        1.83725188944125
N          153.11955108525478       -1.15193082775733        0.97514443761165
C          151.61661825472837       -2.63416311586489        2.25432318834289
C          151.60387134030123       -3.75832690499002        3.22078598102862
C          150.99491194042182       -4.97031674277048        2.88328361514766
C          150.98475717139559       -6.02352877916358        3.78029120922626
C          151.57970477239343       -5.88374046105786        5.03640512601915
C          151.58194062057703       -6.99012308714470        6.01131561889480
O          152.08694683294408       -6.91873519878871        7.10222440200563
C          152.18607069069446       -4.66986251369893        5.37597309563288
C          152.20074159899303       -3.62030685179283        4.47766484729647
C          150.38925867582756       -2.11311538835438        1.84008697657819
C          149.10612432427718       -2.56258695206759        2.35075195682066
C          148.16543544358044       -1.83258907874373        1.71676912909504
C          148.87535628096643       -0.93423649375148        0.82797565545926
N          150.20752864896934       -1.11579508393936        0.93152311907790
H          147.12835178969078        1.87654101999450       -1.88931108713181
H          149.01139993229546        3.29921381502488       -3.14378813486342
H          150.90456815067131        0.60152528805858       -0.50463130059420
H          152.76560255368668        2.58448638409957       -4.77038666450217
H          152.78623158441025        4.45264319542966       -6.40533520193314
H          151.24603434501017        7.82230453773428       -5.77413606909864
H          150.64744937825125        6.90980089556718       -3.62106812619266
H          150.63656797097599        5.05730850773912       -1.99021515156999
H          154.33755012103734        3.52381743448975       -2.85572155602148
H          156.20997040428688        2.06408083317409       -1.59254301717451
H          156.17634786887368       -2.12569243710951        1.61976437145090
H          154.29332480388982       -3.56552597164780        2.85450772221637
H          152.39960675160484       -0.58869769544447        0.53503167790911
H          150.54344697828537       -5.08547103195460        1.90436024560604
H          150.51504174773729       -6.96291053180185        3.50740155395411
H          151.07463146365856       -7.91219279630991        5.65580621172974
H          152.64122885308706       -4.56866884016745        6.35537096002893
H          152.65944680664313       -2.67631552039887        4.74959241870288
H          148.96614963174252       -3.32178127720203        3.10296079741147
H          147.09368215254338       -1.87301463356701        1.82710931151941
C          164.26253305197741       -0.02273392603492       -0.01491515856355
C          164.88925356898065        0.90305561745072       -0.87214273612996
C          164.24122197878216        1.80471279826980       -1.75493468660963
C          165.20629173640611        2.53622299862789       -2.39176389006540
C          166.47226535108240        2.10795598386188       -1.90720943098031
N          166.23006012730417        1.11219771692695       -0.99949206874596
C          167.73210653817057        2.58703744345005       -2.28868217189438
C          167.74332502314849        3.69990993625471       -3.26824524076592
C          168.35498328004113        3.53756837342981       -4.51511144246708
C          168.36285295491899        4.57393870231941       -5.42852199356794
C          167.76426450522592        5.79862585961975       -5.11470788320850
C          167.78980541856774        6.89062068264129       -6.10541111173287
O          168.30207374965548        6.79643813545475       -7.19113728996503
C          167.15490689035553        5.96289065008822       -3.86857511555525
C          167.14212249957924        4.92256526030510       -2.95648397824224
C          168.96013385817884        2.10900467098002       -1.82752022226285
C          170.24213558698506        2.67984700643548       -2.20172899919117
C          171.18420429358821        1.95410365986998       -1.56505944269429
N          169.14397679211126        1.07305208581343       -0.96346959650747
C          170.47635313837614        0.94904452088308       -0.79697555437856
C          171.13742865420224       -0.01404267188013       -0.00770909431013
C          170.51087974789559       -0.99012180343673        0.79189405964242
C          171.15920950566715       -1.98557519762231        1.56726678491104
C          170.19423283418814       -2.71869408978656        2.20221559457870
C          168.92784867692538       -2.18400034257550        1.83965880541077
N          169.16992438204744       -1.14824374919093        0.97775563639605
C          167.66788385617417       -2.63170502028735        2.25692149595144
C          167.65687315040404       -3.75604606723229        3.22328288006834
C          167.05025347566536       -4.96910372548240        2.88547954973256
C          167.04242577650368       -6.02265164710398        3.78212565097504
C          167.63739732201364       -5.88211273415392        5.03813855805597
C          167.64256714445725       -6.98900629698934        6.01247681394501
O          168.14771270474756       -6.91695111754709        7.10326498792218
C          168.24121126942245       -4.66707504548443        5.37809298308695
C          168.25356887317315       -3.61718114063416        4.48014726711967
C          166.43972438200203       -2.11215166981254        1.84331223609468
C          165.15752527290033       -2.56360074807171        2.35464588645590
C          164.21535969978561       -1.83501505556143        1.72125089167479
C          164.92339739367711       -0.93529432610958        0.83233740667323
N          166.25589642709821       -1.11496516189344        0.93494578627553
H          163.17338091336580        1.87412784048226       -1.88495438906095
H          165.05582575792818        3.29822191489900       -3.13884502098802
H          166.94996683575624        0.60123214298901       -0.49958225932119
H          168.80918444196274        2.58561186822261       -4.76554252859112
H          168.83030628822806        4.45421400738801       -6.39998927258424
H          167.29147414005473        7.82426464580577       -5.76775387055590
H          166.69181385739648        6.91100527593202       -3.61518168891478
H          166.68040022548388        5.05803834753241       -1.98484467784253
H          170.38041787775666        3.52889576171360       -2.85111776085190
H          172.25568024336587        2.07148990066337       -1.58953246248868
H          172.22727643716686       -2.12053542325497        1.62214083500063
H          170.34501110792846       -3.56152014357953        2.85664069794852
H          168.44989631670919       -0.58514380680836        0.53761203287430
H          166.59886406121592       -5.08482613064805        1.90658788458391
H          166.57461565359890       -6.96290724553023        3.50897689080045
H          167.13686532383224       -7.91191416984013        5.65685430784577
H          168.69639065858263       -4.56531312297604        6.35742174365868
H          168.71045967241466       -2.67236628951530        4.75227083918778
H          165.01913565886161       -3.32307853969722        3.10686066712517
H          163.14373854788758       -1.87711857232752        1.83222085690369
C          180.31240678137797       -0.01785252150387       -0.01329067997155
C          180.93975700128291        0.90749216233200       -0.87056646085225
C          180.29241946740672        1.80950738550813       -1.75351520513352
C          181.25804226802148        2.54022838782998       -2.39040753297619
C          182.52371610851074        2.11112247607406       -1.90577500702590
N          182.28072948877292        1.11568105845266       -0.99787943108067
C          183.78383527249983        2.58929792460887       -2.28740037922024
C          183.79589923149024        3.70187975161269       -3.26730894655775
C          184.40749767010783        3.53858890589895       -4.51408569316941
C          184.41675836369893        4.57479596155386       -5.42766064313321
C          183.81964570935571        5.80026889981408       -5.11410139869224
C          183.84690137359084        6.89215886826584       -6.10487720677911
O          184.35924387900212        6.79717767262095       -7.19049758568537
C          183.21022740924690        5.96543180983947       -3.86811877031236
C          183.19604142196738        4.92526373868341       -2.95585919320137
C          185.01172418412096        2.11078801149266       -1.82627387401148
C          186.29391087648949        2.68103175508796       -2.20080072220749
C          187.23580064539053        1.95491494983776       -1.56429093301561
N          185.19527909395771        1.07491686164481       -0.96211074686383
C          186.52765980358774        0.95040789500023       -0.79580325377580
C          187.18837061333855       -0.01283032932561       -0.00644914399185
C          186.56119265544982       -0.98831993578128        0.79337789099168
C          187.20881053376434       -1.98408287754489        1.56890615352328
C          186.24330455496661       -2.71621930096809        2.20419051744040
C          184.97729359174181       -2.18073236006873        1.84147204394424
N          185.22010643582243       -1.14545942987714        0.97923498187898
C          183.71703796793082       -2.62755147455244        2.25892941265070
C          183.70592653801336       -3.75154729464948        3.22572755470913
C          183.09962803700662       -4.96487219963568        2.88835678624994
C          183.09261027178096       -6.01829494096501        3.78517000125307
C          183.68805009156424       -5.87734037991557        5.04091256987385
C          183.69447217763965       -6.98422429102836        6.01525480268783
O          184.20008242462464       -6.91179500592879        7.10580179652552