120
 energy: -216.644418295147 gnorm: 0.545361502015 xtb: 6.5.1 (b24c23e)
Ni          16.72044600000000       -0.03046100000000       -0.00246500000000
C           13.38244900000000        0.09269400000000        0.06961300000000
C           14.04442400000000        1.24213800000000        0.23053500000000
C           13.39355300000000        2.53944500000000        0.36771000000000
C           14.33352200000000        3.45010300000000        0.54039700000000
C           15.63859900000000        2.77468700000000        0.53440100000000
N           15.46181400000000        1.37266900000000        0.32731600000000
C           16.83053300000000        3.38054100000000        0.71605400000000
C           16.87974400000000        4.83900600000000        0.96832500000000
C           16.39706500000000        5.36814900000000        2.17603200000000
C           16.46001800000000        6.74399600000000        2.41651700000000
C           17.01085400000000        7.60054000000000        1.45485600000000
C           17.07686600000000        9.01676200000000        1.70356900000000
N           17.12992500000000       10.15533800000000        1.90361600000000
C           17.49996200000000        7.07553700000000        0.25192200000000
C           17.43664500000000        5.69988100000000        0.01012900000000
C           18.12196700000000        2.64481700000000        0.68453800000000
C           19.40530800000000        3.22989700000000        1.09183200000000
C           20.34011000000000        2.32000200000000        0.90702200000000
N           18.26499500000000        1.42297100000000        0.27094700000000
C           19.66032600000000        1.14226800000000        0.38183800000000
C           20.25488600000000        0.00023400000000        0.00006600000000
C           19.49167300000000       -1.15985800000000       -0.51136100000000
C           20.02259100000000       -2.15237700000000       -1.21421800000000
C           18.97997400000000       -3.13817400000000       -1.42371200000000
C           17.88206700000000       -2.68428100000000       -0.83019700000000
N           18.11546200000000       -1.41095600000000       -0.22629200000000
C           16.60357300000000       -3.43561800000000       -0.74407600000000
C           16.62683200000000       -4.90115700000000       -0.97161800000000
C           15.94266100000000       -5.46519900000000       -2.06106300000000
C           15.98454300000000       -6.84519600000000       -2.28142700000000
C           16.71619700000000       -7.67207200000000       -1.41982100000000
C           16.76021300000000       -9.09263500000000       -1.64785700000000
N           16.79563700000000      -10.23471800000000       -1.83111300000000
C           17.40792900000000       -7.11312300000000       -0.33790400000000
C           17.36601200000000       -5.73329500000000       -0.11618600000000
C           15.44125200000000       -2.81648400000000       -0.46139200000000
C           14.13396300000000       -3.45425000000000       -0.31441400000000
C           13.27198300000000       -2.47929800000000       -0.09901800000000
C           14.02019200000000       -1.22332000000000       -0.09410800000000
N           15.28521800000000       -1.40764000000000       -0.30436100000000
H           12.29908900000000        0.12052000000000        0.06025600000000
H           12.33020300000000        2.73858600000000        0.33050300000000
H           14.14548700000000        4.50885900000000        0.66165700000000
H           15.97475900000000        4.71437000000000        2.92930400000000
H           16.08193500000000        7.13905100000000        3.35181800000000
H           17.93079100000000        7.72868200000000       -0.49741900000000
H           17.81969100000000        5.30465100000000       -0.92275100000000
H           19.57597500000000        4.22599900000000        1.47861500000000
H           21.39388800000000        2.45199900000000        1.11324500000000
H           21.04836000000000       -2.23277600000000       -1.54825100000000
H           19.08908800000000       -4.08063200000000       -1.94458300000000
H           15.38130700000000       -4.83514900000000       -2.74009500000000
H           15.44981800000000       -7.26643000000000       -3.12428400000000
H           17.97985000000000       -7.74311800000000        0.33276900000000
H           17.90638100000000       -5.31272800000000        0.72312800000000
H           13.89236700000000       -4.50771800000000       -0.36554400000000
H           12.20736400000000       -2.60217500000000        0.05083200000000
Ni          30.50425700000000        0.03074600000000       -0.00412300000000
C           33.84225400000000       -0.08832600000000        0.07451700000000
C           33.18028000000000       -1.22737300000000        0.29742900000000
C           33.83115000000000       -2.51535200000000        0.50463400000000
C           32.89118100000000       -3.41532500000000        0.72636800000000
C           31.58610400000000       -2.74122400000000        0.68381600000000
N           31.76289000000000       -1.35247300000000        0.40113500000000
C           30.39417000000000       -3.33635600000000        0.89800200000000
C           30.34496000000000       -4.77902500000000        1.22885800000000
C           30.82763800000000       -5.24201100000000        2.46344100000000
C           30.76468500000000       -6.60282100000000        2.77805600000000
C           30.21384900000000       -7.51017000000000        1.86417600000000
C           30.14783700000000       -8.91085100000000        2.18919400000000
N           30.09477800000000      -10.03692700000000        2.45058500000000
C           29.72474100000000       -7.05105900000000        0.63458400000000
C           29.78805800000000       -5.69051000000000        0.31867300000000
C           29.10273700000000       -2.60341700000000        0.82670300000000
C           27.81939500000000       -3.16558900000000        1.26507300000000
C           26.88459300000000       -2.26703400000000        1.03127600000000
N           28.95970800000000       -1.40575300000000        0.34757200000000
C           27.56437700000000       -1.11945800000000        0.44310300000000
C           26.96981700000000        0.00023400000000        0.00006600000000
C           27.73303000000000        1.13093700000000       -0.57341500000000
C           27.20211200000000        2.08395100000000       -1.32897200000000
C           28.24472900000000        3.05696100000000       -1.59152700000000
C           29.34263600000000        2.63586400000000       -0.97431000000000
N           29.10924100000000        1.39710000000000       -0.30235700000000
C           30.62113000000000        3.39076100000000       -0.92898900000000
C           30.59787200000000        4.84183300000000       -1.23553700000000
C           31.28204200000000        5.34607000000000       -2.35391900000000
C           31.24016000000000        6.71211300000000       -2.64866800000000
C           30.50850600000000        7.58442000000000       -1.83309000000000
C           30.46449000000000        8.99055600000000       -2.13769600000000
N           30.42906600000000       10.12104200000000       -2.38251100000000
C           29.81677400000000        7.08486200000000       -0.72250000000000
C           29.85869100000000        5.71906100000000       -0.42640800000000
C           31.78345100000000        2.78783900000000       -0.61320200000000
C           33.09074000000000        3.43262700000000       -0.50096600000000
C           33.95272100000000        2.47076500000000       -0.23310500000000
C           33.20451100000000        1.21689500000000       -0.16020900000000
N           31.93948500000000        1.38956300000000       -0.38013200000000
H           34.92561400000000       -0.11661800000000        0.06668000000000
H           34.89450000000000       -2.71621500000000        0.47826300000000
H           33.07921600000000       -4.46596400000000        0.90476800000000
H           31.24994400000000       -4.54841200000000        3.18021400000000
H           31.14276800000000       -6.94666300000000        3.73337300000000
H           29.29391200000000       -7.74381400000000       -0.07829900000000
H           29.40501200000000       -5.34636300000000       -0.63423600000000
H           27.64872800000000       -4.13929100000000        1.70521400000000
H           25.83081500000000       -2.38767300000000        1.24434200000000
H           26.17634300000000        2.14614900000000       -1.66686700000000
H           28.13561500000000        3.96983800000000       -2.16265500000000
H           31.84339599999999        4.68018300000000       -2.99784700000000
H           31.77488500000000        7.08710000000000       -3.51309400000000
H           29.24485400000000        7.75024100000000       -0.08691600000000
H           29.31832199999999        5.34454900000000        0.43444300000000
H           33.33233600000000        4.48178200000000       -0.60905200000000
H           35.01733900000000        2.60157500000000       -0.09012700000000
C           22.87686000000000        0.01240500000000        0.00243300000000
C           21.62459000000000       -0.00677600000000       -0.00191600000000
C           24.19052800000000        0.01163900000000        0.00436500000000
C           25.69366200000000       -0.00677600000000       -0.00191600000000
120
 energy: -216.782822390472 gnorm: 0.301942234613 xtb: 6.5.1 (b24c23e)
Ni          16.73188297970254       -0.01925654075282        0.00170713021597
C           13.38252245242852        0.07260038866198        0.06746123821964
C           14.05217277125307        1.24016598085044        0.22887673496332
C           13.39630637549932        2.52952909509567        0.36574199719506
C           14.34835028613935        3.44923077504087        0.54086731385332
C           15.64020813296207        2.76437522388865        0.53087748231406
N           15.44569175465963        1.38391975155282        0.32859641109638
C           16.84801379468511        3.37673208820656        0.71746453529722
C           16.88862427730248        4.84010777645930        0.97198589136748
C           16.39802195017162        5.37288724575991        2.17085329250912
C           16.46032462297488        6.74112747049203        2.41262169830816
C           17.01086199271192        7.60073028583997        1.45487731641938
C           17.07670452492821        9.01172212640606        1.70273385873210
N           17.12932510835012       10.14401727158128        1.90165155072758
C           17.49828528339715        7.07205220631390        0.25400062843727
C           17.43798691533624        5.70315466057878        0.01686354901983
C           18.10986123891188        2.66356609228472        0.68765479864385
C           19.38363269037117        3.24579899643033        1.09037581251636
C           20.32926031253355        2.31319362734790        0.90321663465010
N           18.26700633681898        1.41109938763362        0.28636188556295
C           19.65077583604844        1.14602836372468        0.38420607140520
C           20.26034213924888       -0.01450476634735       -0.01258997826852
C           19.48038293950174       -1.15742624118203       -0.49873826349361
C           20.02453470155273       -2.17921460454364       -1.22133371783993
C           19.00475818816434       -3.14249515782358       -1.42448784671828
C           17.87341810492030       -2.67332391235501       -0.81611370361941
N           18.11102018454307       -1.40160924351061       -0.24477368156862
C           16.62236006579241       -3.42346391596483       -0.74112751249624
C           16.63968664257558       -4.89523334042660       -0.97717695436093
C           15.94594028624631       -5.46655853566662       -2.05478585916851
C           15.98592987826477       -6.84012745818975       -2.27685875445466
C           16.71620100771624       -7.67132834824624       -1.41965537859307
C           16.76017415642882       -9.08700695377879       -1.64711981778491
N           16.79510889436438      -10.22286356402711       -1.82922268781214
C           17.40523736847414       -7.10807560513160       -0.33938239356569
C           17.36693903677317       -5.73428493416265       -0.12300296547383
C           15.44516351049943       -2.80910158373488       -0.45813435615524
C           14.14551005594171       -3.44667000194187       -0.31561987547076
C           13.26194153834064       -2.46200388685911       -0.09867375710207
C           14.00120360464840       -1.21097505778371       -0.09284701459793
N           15.29320431741075       -1.40926588220146       -0.29195133043323
H           12.29951845367090        0.10909629850036        0.06088622151153
H           12.33257375608057        2.72353015109066        0.32855935249011
H           14.16555448336656        4.50819411811969        0.66308183136397
H           15.97706665089895        4.71595182040835        2.92504745541799
H           16.08326752359680        7.13834337073604        3.34885099147436
H           17.92903304642426        7.72746869085869       -0.49506893058475
H           17.81809797719477        5.30524988258377       -0.91833870547534
H           19.55863188020417        4.23594504235624        1.47825388028596
H           21.38587066252112        2.43573025739464        1.10655453508604
H           21.04833099182865       -2.24322325014121       -1.55398827922441
H           19.09955194905099       -4.08072510285287       -1.94769392345481
H           15.38459875691256       -4.83552485904463       -2.73598839319253
H           15.45189943718577       -7.26426399034756       -3.12089110593638
H           17.97735334955381       -7.74101228537655        0.33063347395244
H           17.90464025313675       -5.31291004311661        0.71955385126254
H           13.91114531493293       -4.50225195208197       -0.36776985583660
H           12.20159469199938       -2.58820375296297        0.05234734229967
Ni          30.49205963874240        0.01965018755548        0.00066833635101
C           33.84220664237998       -0.06834087212652        0.07127561180925
C           33.17249145510817       -1.22553508044588        0.29566801829911
C           33.82836235052348       -2.50549463019317        0.50212757721599
C           32.87620614018504       -3.41441368810291        0.72674382338323
C           31.58449065274036       -2.73112197137164        0.67974708432960
N           31.77897022817559       -1.36353178056065        0.40283461544947
C           30.37641485583154       -3.33223948374665        0.89922355823669
C           30.33606965930582       -4.77978364457497        1.23254410595772
C           30.82668711977902       -5.24696198530795        2.45849797902471
C           30.76436595785472       -6.60012662799115        2.77399408441884
C           30.21384282424200       -7.51033583809909        1.86420259285445
C           30.14799384786187       -8.90585009980982        2.18808596630048
N           30.09538457370425      -10.02571814933111        2.44800694700293
C           29.72644470060767       -7.04742371848905        0.63646466962631
C           29.78672690312071       -5.69335061702943        0.32556973861324
C           29.11414079597570       -2.62237505274800        0.83099692718705
C           27.84225158552260       -3.18259913609838        1.26466071288930
C           26.89552948247916       -2.26107820722753        1.02782456219670
N           28.95394313423375       -1.39224139052995        0.36169846436316
C           27.57050170406599       -1.12601329689152        0.44755708102532
C           26.94448559157191        0.01575080426609       -0.01238140272837
C           27.74180422154763        1.13105226826040       -0.56133886597452
C           27.20002731969308        2.11042297129445       -1.33849761926554
C           28.22053700142724        3.06151767671285       -1.59261332827154
C           29.35096290239072        2.62560999281438       -0.95954489156426
N           29.11160306984496        1.38645792724678       -0.31960384481397
C           30.60241879916127        3.37868072930523       -0.92534526119828
C           30.58502574377346        4.83554760750692       -1.24073177097292
C           31.27876495829820        5.34773904542550       -2.34770625201915
C           31.23876733084867        6.70727913900406       -2.64382324531334
C           30.50850211987308        7.58367713444043       -1.83288254960072
C           30.46452823503068        8.98497094653850       -2.13665495632859
N           30.42959452293395       10.10930230480383       -2.37998012433763
C           29.81946960806503        7.07972455757175       -0.72369991677653
C           29.85775517238041        5.71965656571263       -0.43326675067038
C           31.77953363007521        2.78063697225723       -0.60959367322231
C           33.07918487229144        3.42499977792478       -0.50174226665726
C           33.96273616800798        2.45352568644091       -0.23182300414016
C           33.22343690755051        1.20464635817617       -0.15826275582941
N           31.93143249232157        1.39175162603094       -0.36774992390352
H           34.92519830951407       -0.10516125751693        0.06668176025644
H           34.89209931399735       -2.70125002924894        0.47551272206868
H           33.05907888228303       -4.46519649850373        0.90615791885272
H           31.24763309671452       -4.55020310179778        3.17605733277055
H           31.14142989190035       -6.94609111952513        3.73035569120891
H           29.29567542133493       -7.74244310746894       -0.07601218152524
H           29.40658905049764       -5.34669751939662       -0.62979674940493
H           27.66672427537818       -4.14987647590285        1.70557225401432
H           25.83873210860518       -2.37186450537209        1.23684404559217
H           26.17605769764025        2.15649394431700       -1.67337462477349
H           28.12550408915272        3.96996617450828       -2.16575219620922
H           31.84010426122713        4.68077168428376       -2.99376558499817
H           31.77279925229149        7.08510692970888       -3.50958072692062
H           29.24735491188772        7.74801248951230       -0.08893375197921
H           29.32005600213371        5.34453297915880        0.43087092135163
H           33.31355864825034        4.47620529571747       -0.61097890363863
H           35.02309105284582        2.58770132241269       -0.08786302085711
C           22.91927446596614        0.00370262829811        0.00207013664655
C           21.66003042885495       -0.02481809292299       -0.00627672298602
C           24.25736838726215        0.01667581493062        0.00325480306206
C           25.58080109558228        0.01531976055085       -0.01099589939406
120
 energy: -216.822277892956 gnorm: 0.292825605695 xtb: 6.5.1 (b24c23e)
Ni          16.75332902475589       -0.01178007300946        0.01640566153276
C           13.38824812780078        0.05165351067176        0.06632043128907
C           14.06467559330676        1.24111305330981        0.22624433631453
C           13.40328331195478        2.51799931261476        0.36304525037092
C           14.36637056716249        3.44476496863315        0.54024828330424
C           15.64016012220763        2.75032360380404        0.52621182868325
N           15.43014497085976        1.39699326063155        0.32501818248731
C           16.86890112345048        3.36570746571042        0.71966793622524
C           16.89617614587551        4.83600823661321        0.97517606119658
C           16.39988231234677        5.37403982219121        2.16663546101855
C           16.46033312192478        6.73656933538138        2.40887584940099
C           17.01072770676876        7.59921868200467        1.45462235371953
C           17.07635823886318        9.00398632855355        1.70147909770577
N           17.12894573972857       10.13703746475489        1.90047872083658
C           17.49719280860856        7.06713086016314        0.25564543835727
C           17.44002663002855        5.70312255468163        0.02311076585019
C           18.09745635533732        2.67801532844424        0.69071725943653
C           19.36188673750408        3.25353865909036        1.08240104699151
C           20.31304336513449        2.30317943985854        0.89644069628136
N           18.27284778134597        1.38957612976127        0.29986435611791
C           19.63973087864463        1.14180477203423        0.39124679764206
C           20.26867128726264       -0.03367879312879       -0.02479935945893
C           19.47526069818643       -1.14881122265268       -0.48725876674967
C           20.02598310983934       -2.21193240365653       -1.22146775594812
C           19.03682979481685       -3.14342949386729       -1.41589629256290
C           17.86708490243633       -2.65728727216632       -0.80226661465884
N           18.11695112996946       -1.38891028508732       -0.27456830456584
C           16.65059027879202       -3.40200036171950       -0.73863706193436
C           16.65659516973056       -4.88144683965307       -0.98448989058817
C           15.95210443163885       -5.46210895178531       -2.04944986465746
C           15.98706388572796       -6.83100832527245       -2.27127150491106
C           16.71625748187873       -7.66754186550835       -1.41895502222611
C           16.75966912881074       -9.07743598269571       -1.64570649275073
N           16.79473083216427      -10.21410969131765       -1.82798317747266
C           17.40360425267916       -7.10016589754202       -0.34062995840227
C           17.37078245734854       -5.73054553121160       -0.13067424846913
C           15.44961792246981       -2.79284710400607       -0.44811150647803
C           14.16143613820504       -3.43125744860541       -0.31641832242288
C           13.25879559919351       -2.44355889272461       -0.10208759102972
C           13.98283062248452       -1.19684328025146       -0.08997252698993
N           15.30562853123169       -1.41104535029304       -0.27686392898275
H           12.30417591905907        0.09996321066055        0.06542503317806
H           12.33880694211992        2.70392621389873        0.32631889886515
H           14.19215060272366        4.50412899311803        0.66449812151610
H           15.97894042438756        4.71568349999979        2.92060405647115
H           16.08410241353372        7.13747376252247        3.34469456026920
H           17.92628598691407        7.72604183461891       -0.49234332365998
H           17.81771672024140        5.30376536517634       -0.91338566125099
H           19.53867991257556        4.24121493577046        1.47366846905939
H           21.37145860204687        2.41594124026983        1.09732670570636
H           21.04888915539041       -2.25343722204706       -1.55659287957373
H           19.10806040087543       -4.07913878364028       -1.94632705665399
H           15.38825469454598       -4.83271488634623       -2.73132837650177
H           15.45354411651659       -7.25950515871058       -3.11494211005822
H           17.97316496221915       -7.73754403946732        0.32882614181886
H           17.90517940966338       -5.31051518090713        0.71552383388991
H           13.93679498150653       -4.48946638622476       -0.37027901754161
H           12.20010724772432       -2.57280752196914        0.05120726034935
Ni          30.46958041771359        0.01319641656146        0.01577263767348
C           33.83634122183079       -0.04748869299667        0.06896956530497
C           33.15972515341522       -1.22656829065334        0.29304020841765
C           33.82107134453815       -2.49412071264990        0.49882423766389
C           32.85774935487704       -3.40985903581698        0.72594184968134
C           31.58395095478049       -2.71699405771672        0.67413997145309
N           31.79421016827120       -1.37655262567257        0.39993778313263
C           30.35424340950702       -3.31979438900818        0.90034900826029
C           30.32781655731726       -4.77475475233684        1.23545049817232
C           30.82461720901756       -5.24799476038925        2.45414018605880
C           30.76436965606712       -6.59553667444274        2.76983504064097
C           30.21397945017188       -7.50871055066232        1.86381692288484
C           30.14836217817368       -8.89809287102418        2.18638170729565
N           30.09576709891546      -10.01872136949732        2.44643072807586
C           29.72757354052513       -7.04223725159589        0.63780664387583
C           29.78456956861169       -5.69272303076159        0.33179068269139
C           29.12474360829719       -2.63403910581453        0.83399517311898
C           27.86268216856825       -3.18921657905484        1.25685738865000
C           26.90948689276994       -2.25088086162695        1.02022175580602
N           28.94435293559653       -1.36721413510842        0.37320459828028
C           27.57597166945303       -1.11826176666141        0.45094364195903
C           26.92522846658069        0.03056288609162       -0.02611020029337
C           27.74063270217544        1.11934200053147       -0.54692709548653
C           27.19597220387221        2.14221709786074       -1.33936918105976
C           28.18717346490643        3.06145482425203       -1.58391715831536
C           29.35531695107883        2.60828427504380       -0.94380424480311
N           29.10105003887852        1.36942198747548       -0.34731280577311
C           30.57287922382375        3.35632524996754       -0.92132883202022
C           30.56750523851536        4.82074377249200       -1.24733425213694
C           31.27238028480047        5.34327562394338       -2.34200414591726
C           31.23759968947547        6.69826277277030       -2.63763660153079
C           30.50843704834504        7.57982799817675       -1.83195931351997
C           30.46504676757611        8.97540812974550       -2.13471525424803
N           30.42997382302956       10.10055835701006       -2.37826654124223
C           29.82112619976968        7.07162191755126       -0.72450204376177
C           29.85381070336583        5.71531308508493       -0.44072370464057
C           31.77453065890982        2.76467960693306       -0.59860664525328
C           33.06289036832175        3.40948616148824       -0.50181562318932
C           33.96567194059585        2.43493588877646       -0.23429949818149
C           33.24165758148902        1.19065845466239       -0.15467831739147
N           31.91882865187504        1.39423093467581       -0.35278595611047
H           34.92043360293604       -0.09582523368878        0.07072512951202
H           34.88559892309107       -2.68185274886782        0.47221842182941
H           33.03223784254254       -4.46095283617901        0.90734013914200
H           31.24570136231411       -4.55003854060368        3.17151399560941
H           31.14059847682018       -6.94526097683632        3.72601574354066
H           29.29847524097103       -7.74075352817822       -0.07337934505743
H           29.40689539514225       -5.34490548485666       -0.62501570963906
H           27.68627044214008       -4.15445494209698        1.70108964026052
H           25.85161266598928       -2.35373165392737        1.22726267157322
H           26.17397328925465        2.16723259777381       -1.67726979014468
H           28.11674284379264        3.96748520444793       -2.16420093268078
H           31.83637106759919        4.67809185204899       -2.98889496742550
H           31.77113092778656        7.08051436530991       -3.50328720269437
H           29.25158056554131        7.74437285392225       -0.09055515960488
H           29.31943159829034        5.34189749823673        0.42703037782017
H           33.28765663805974        4.46323771505947       -0.61284568652842
H           35.02440507252950        2.57231458783956       -0.08820770976340
C           22.94541332329172       -0.00485019652220       -0.00087687777492
C           21.70563939866933       -0.04340777311887       -0.01893982792870
C           24.33811705389184        0.02451660436779       -0.00658807505383
C           25.48473789302347        0.03687310878998       -0.01750292859947
120
 energy: -216.847060822410 gnorm: 0.066120597213 xtb: 6.5.1 (b24c23e)
Ni          16.76472794413611       -0.00661388013135        0.02439362359424
C           13.39024943386902        0.04744395276085        0.06734392191000
C           14.06918484086460        1.24050520802547        0.22377779037715
C           13.41014539875844        2.51249677084866        0.36032672680195
C           14.37723694945292        3.44056785689462        0.53849199013229
C           15.64218996106666        2.74528354449096        0.52344855544915
N           15.42869819012368        1.39890894107449        0.32283364030804
C           16.87300071960793        3.36210023953010        0.72125798558811
C           16.90223292415146        4.83223226568606        0.97786491416436
C           16.40133356464438        5.37169591845103        2.16514023004221
C           16.45966073475438        6.73303410910053        2.40677196753854
C           17.01040444152112        7.59517652546374        1.45391211787911
C           17.07565158601757        8.99718440676399        1.70028216033486
N           17.12856861445758       10.12921111187226        1.89914907792179
C           17.49748209207647        7.06335003518016        0.25639230568172
C           17.44476519836387        5.69995739168505        0.02695524627502
C           18.08899116446211        2.67790192433985        0.69597250144397
C           19.34879386741326        3.25515451423816        1.07553289299995
C           20.29633785628188        2.29607121959896        0.89194686358843
N           18.26344263560445        1.37742537179786        0.31688728729650