120
 energy: -216.874156076003 gnorm: 0.000783242516 xtb: 6.5.1 (b24c23e)
Ni          16.89835137622594        0.02762108096540       -0.00178102732475
C           13.50896528763295        0.04400577231341        0.15246972215178
C           14.16634890664405        1.25483562093748        0.21471121313575
C           13.49595197342645        2.51561828362309        0.30941070950430
C           14.45817479926783        3.45737635109901        0.44663758580208
C           15.71589849128395        2.76864332875746        0.44759661106702
N           15.52801786834731        1.42144540747053        0.26628162758888
C           16.94016688427035        3.39147263447307        0.65315212276287
C           16.95970999278483        4.84395722252236        0.94537030360829
C           16.33078766746242        5.34326056757000        2.08812228310897
C           16.35431289248779        6.69729738979896        2.37022358394626
C           17.00571313065983        7.58189681558249        1.50552762285107
C           17.03128656608538        8.97598776638255        1.79275203164672
N           17.05147802073762       10.10254243935095        2.02626233908399
C           17.63255913193274        7.08746112097634        0.35785795716098
C           17.61047646187598        5.73140159904632        0.08539431198472
C           18.14784210675399        2.70760531787467        0.60350055397985
C           19.41744512592553        3.31387463312626        0.86861987432235
C           20.35789876441594        2.36468663676429        0.64683870820170
N           18.30792812960036        1.38418726058120        0.26208691431624
C           19.66092131243936        1.18058110141130        0.25661343679534
C           20.30850028898259        0.00688603701485       -0.13577955500065
C           19.61758503031879       -1.15554216359581       -0.48469609187507
C           20.26666161633372       -2.34523744343539       -0.93563677667351
C           19.29956392674387       -3.28130100308294       -1.08878905453849
C           18.06286128822291       -2.66222338926507       -0.71853714462171
N           18.26564326575367       -1.34235283691206       -0.38566027014174
C           16.84861371626113       -3.33408556731745       -0.66418337121800
C           16.82753667640849       -4.78756538834071       -0.95107074050867
C           16.09338716427370       -5.28592584398507       -2.02964303514229
C           16.07395624675535       -6.64212284807966       -2.30170218417240
C           16.78734807458764       -7.52979396141486       -1.49075156443602
C           16.76783190010491       -8.92635379000957       -1.76598213972576
N           16.75259436161234      -10.05528759758647       -1.98841447944403
C           17.52049233758688       -7.03610403690739       -0.40753061596147
C           17.54074157385444       -5.67800577532465       -0.14538197207901
C           15.65340837099687       -2.70017237824238       -0.34952336744506
C           14.39437038328104       -3.37698950862137       -0.23560900097468
C           13.45801582953496       -2.42673714091552       -0.00767849326679
C           14.14651096972139       -1.17270636766602        0.02847522545005
N           15.49591573302016       -1.35202593622529       -0.14846390352987
H           12.42645266771677        0.04877163769047        0.20293231402113
H           12.42578461470429        2.64274158214705        0.27271675247301
H           14.34098358760146        4.52515687843768        0.53565577560750
H           15.83495762034244        4.65851442201144        2.76685607729442
H           15.87040928936467        7.07692514949808        3.26249270227714
H           18.13489319237867        7.77112929676415       -0.31643682755873
H           18.08908865909996        5.35232469827896       -0.81049565452719
H           19.56057679451939        4.33285942752655        1.18895881119166
H           21.42931924879232        2.44398111181039        0.73524764739657
H           21.32666929928205       -2.43588598476708       -1.10975086949011
H           19.40354748891717       -4.29940424184910       -1.42663486065737
H           15.54764717050140       -4.59934940748634       -2.66695947693673
H           15.50745224024528       -7.02125326601108       -3.14418270273046
H           18.07110855129046       -7.72201868142274        0.22550042248412
H           18.10164328946821       -5.29960884176225        0.70171864273521
H           14.25849510139044       -4.44314971862338       -0.31695137766401
H           12.39451661790216       -2.54404947520305        0.12637838413930
Ni          30.32526941580328       -0.02655695858512        0.00151669382396
C           33.71465162070767       -0.03460078986569        0.15492259343883
C           33.05726083183549       -1.24021660170370        0.28328955771448
C           33.72760045103929       -2.49413322749444        0.44548402368565
C           32.76536671567575       -3.42701382748182        0.63378774187498
C           31.50769312484840       -2.73909123465834        0.59833086408030
N           31.69558303958217       -1.40367998357823        0.34450844818331
C           30.28354098550064       -3.35004288483877        0.83760348641151
C           30.26433253782464       -4.78479413382085        1.20723381915992
C           30.89404918781288       -5.22227404616760        2.37462047235680
C           30.87069160643858       -6.55924168830029        2.72891330305146
C           30.21866061904936       -7.48879747544102        1.91333217139685
C           30.19274935055371       -8.86562705706681        2.27439574938559
N           30.17023542336737       -9.97907812898136        2.56380607792247
C           29.59122912201882       -7.05651465964716        0.74108615626883
C           29.61318165485068       -5.71701517342790        0.39629757432051
C           29.07575150838370       -2.67003119792615        0.75133387770200
C           27.80612535477940       -3.26126933193474        1.04831818363616
C           26.86558465746248       -2.32570302467282        0.77496828866263
N           28.91556359795119       -1.36701374577985        0.33872145908581
C           27.56252649301474       -1.16435938108457        0.32147423143718
C           26.91513120436011       -0.01376255172449       -0.13448703518494
C           27.60620268717289        1.12802903323420       -0.54561243124278
C           26.95708770893620        2.29123964665927       -1.06090007846319
C           27.92406574335558        3.21776974074102       -1.26442978061296
C           29.16070994863238        2.61994497658444       -0.86049186573609
N           28.95803855350247        1.32025636257073       -0.45622829864308
C           30.37483156403364        3.29405979050792       -0.84337040012972
C           30.39493793406411        4.72963974085032       -1.20937705492523
C           31.12857827935044        5.16870840918508       -2.31373677057987
C           31.14837639476765        6.50828306354969       -2.65842008359025
C           30.43578481885549        7.43877178511682       -1.89610560594357
C           30.45871052118725        8.81888615188636       -2.24421190805131
N           30.47937359913449        9.93353411181766       -2.52959166675093
C           29.70149584141869        7.00428741397628       -0.78862980361551
C           29.68094334658866        5.66230035435533       -0.45368584234588
C           31.57029483253118        2.67846151984778       -0.49512385811847
C           32.82954103718978        3.36020627690767       -0.41937382230564
C           33.76588274488862        2.42367758629016       -0.14028422171237
C           33.07719694458923        1.17365340484130       -0.03489835251081
N           31.72771624337998        1.34327445674683       -0.22056257096979
H           34.79720966106370       -0.03684787922927        0.20482759954976
H           34.79770947928257       -2.62339369095962        0.41506119854184
H           32.88253816000931       -4.48847768411911        0.77998376722222
H           31.39047431844125       -4.50220609851236        3.01529678154718
H           31.35520764266472       -6.89045664527072        3.63993327722710
H           29.08856485714917       -7.77539936035779        0.10472534379809
H           29.13424091691721       -5.38650211609699       -0.51845041068410
H           27.66300725328024       -4.26145689695635        1.42326937582580
H           25.79410599461678       -2.40021753612008        0.86677560879044
H           25.89716868809040        2.37207267115784       -1.24030926525775
H           27.81996259416759        4.21583411622625       -1.65745632233221
H           31.67357336729156        4.44844628480117       -2.91337356557140
H           31.71476676003250        6.84140213486669       -3.52017732415479
H           29.15047587194141        7.72323576149173       -0.19372745848584
H           29.11917187445928        5.33026200857107        0.41209387319165
H           32.96549786512007        4.42025959926579       -0.55937768870371
H           34.82954091981623        2.54772175622453       -0.01366830554626
C           22.93600854078188       -0.00445784976261       -0.18678569894252
C           21.71520347302593       -0.00351544172345       -0.17228946061146
C           24.28765232965821       -0.00778325305403       -0.18511627387745
C           25.50847410760958       -0.00488659976053       -0.17316708411153
