      -----------------------------------------------------------      
     |                   =====================                   |     
     |                           x T B                           |     
     |                   =====================                   |     
     |                         S. Grimme                         |     
     |          Mulliken Center for Theoretical Chemistry        |     
     |                    University of Bonn                     |     
      -----------------------------------------------------------      

   * xtb version 6.5.1 (b24c23e) compiled by 'conda@728c89f4b128' on 2022-07-12

   xtb is free software: you can redistribute it and/or modify it under
   the terms of the GNU Lesser General Public License as published by
   the Free Software Foundation, either version 3 of the License, or
   (at your option) any later version.
   
   xtb is distributed in the hope that it will be useful,
   but WITHOUT ANY WARRANTY; without even the implied warranty of
   MERCHANTABILITY or FITNESS FOR A PARTICULAR PURPOSE.  See the
   GNU Lesser General Public License for more details.
   
   Cite this work as:
   * C. Bannwarth, E. Caldeweyher, S. Ehlert, A. Hansen, P. Pracht,
     J. Seibert, S. Spicher, S. Grimme, WIREs Comput. Mol. Sci., 2020, 11,
     e01493. DOI: 10.1002/wcms.1493
   
   for GFN2-xTB:
   * C. Bannwarth, S. Ehlert and S. Grimme., J. Chem. Theory Comput., 2019,
     15, 1652-1671. DOI: 10.1021/acs.jctc.8b01176
   for GFN1-xTB:
   * S. Grimme, C. Bannwarth, P. Shushkov, J. Chem. Theory Comput., 2017,
     13, 1989-2009. DOI: 10.1021/acs.jctc.7b00118
   for GFN0-xTB:
   * P. Pracht, E. Caldeweyher, S. Ehlert, S. Grimme, ChemRxiv, 2019, preprint.
     DOI: 10.26434/chemrxiv.8326202.v1
   for GFN-FF:
   * S. Spicher and S. Grimme, Angew. Chem. Int. Ed., 2020, 59, 15665-15673.
     DOI: 10.1002/anie.202004239
   
   for ALPB and GBSA implicit solvation:
   * S. Ehlert, M. Stahn, S. Spicher, S. Grimme, J. Chem. Theory Comput.,
     2021, 17, 4250-4261. DOI: 10.1021/acs.jctc.1c00471
   
   for DFT-D4:
   * E. Caldeweyher, C. Bannwarth and S. Grimme, J. Chem. Phys., 2017,
     147, 034112. DOI: 10.1063/1.4993215
   * E. Caldeweyher, S. Ehlert, A. Hansen, H. Neugebauer, S. Spicher,
     C. Bannwarth and S. Grimme, J. Chem. Phys., 2019, 150, 154122.
     DOI: 10.1063/1.5090222
   * E. Caldeweyher, J.-M. Mewes, S. Ehlert and S. Grimme, Phys. Chem. Chem. Phys.
     2020, 22, 8499-8512. DOI: 10.1039/D0CP00502A
   
   for sTDA-xTB:
   * S. Grimme and C. Bannwarth, J. Chem. Phys., 2016, 145, 054103.
     DOI: 10.1063/1.4959605
   
   in the mass-spec context:
   * V. Asgeirsson, C. Bauer and S. Grimme, Chem. Sci., 2017, 8, 4879.
     DOI: 10.1039/c7sc00601b
   * J. Koopman and S. Grimme, ACS Omega 2019, 4, 12, 15120-15133.
     DOI: 10.1021/acsomega.9b02011
   
   for metadynamics refer to:
   * S. Grimme, J. Chem. Theory Comput., 2019, 155, 2847-2862
     DOI: 10.1021/acs.jctc.9b00143
   
   for SPH calculations refer to:
   * S. Spicher and S. Grimme, J. Chem. Theory Comput., 2021, 17, 1701-1714
     DOI: 10.1021/acs.jctc.0c01306
   
   with help from (in alphabetical order)
   P. Atkinson, C. Bannwarth, F. Bohle, G. Brandenburg, E. Caldeweyher
   M. Checinski, S. Dohm, S. Ehlert, S. Ehrlich, I. Gerasimov, C. Hölzer
   A. Katbashev, J. Koopman, C. Lavigne, S. Lehtola, F. März, M. Müller,
   F. Musil, H. Neugebauer, J. Pisarek, C. Plett, P. Pracht, F. Pultar,
   J. Seibert, P. Shushkov, S. Spicher, M. Stahn, M. Steiner, T. Strunk,
   J. Stückrath, T. Rose, and J. Unsleber
   
 * started run on 2022/07/30 at 03:28:36.864     

           -------------------------------------------------
          |                Calculation Setup                |
           -------------------------------------------------

          program call               : xtb xtbopt.xyz --gfn 1 --vipea
          hostname                   : cx3-14-14.cx3.hpc.ic.ac.uk
          coordinate file            : xtbopt.xyz
          omp threads                :                     1

   ID    Z sym.   atoms
    1    6 C      1-5, 7-10, 12-23, 26-31, 34-38, 41, 42, 64-68, 70-73,
                  75-86, 89-94, 97-101, 104, 105, 127-137, 139-142, 144-155,
                  158-163, 166-170, 173, 174, 195-199, 201-204, 206-217,
                  220-225, 228-232, 235, 236
    2    7 N      6, 11, 32, 33, 69, 74, 95, 96, 138, 143, 164, 165, 200,
                  205, 226, 227
    3    8 O      24, 25, 39, 40, 87, 88, 102, 103, 156, 157, 171, 172, 218,
                  219, 233, 234
    4    1 H      43-63, 106-126, 175-194, 237-256

           -------------------------------------------------
          |                 I P E A - x T B                 |
           -------------------------------------------------

        Reference                      10.1039/c7sc00601b
      * Hamiltonian:
        H0-scaling (s, p, d)           2.150000    2.300000    2.000000
        zeta-weighting                 0.000000
      * Dispersion:
        s8                             2.400000
        a1                             0.630000
        a2                             5.000000
        s9                             0.000000
      * Repulsion:
        kExp                           1.500000
        rExp                           1.000000
      * Coulomb:
        alpha                          1.000000
        third order                    atomic
        anisotropic                    false
      * Halogen bond correction:
        rad-scale                      1.300000
        damping                        0.440000


          ...................................................
          :                      SETUP                      :
          :.................................................:
          :  # basis functions                1034          :
          :  # atomic orbitals                1034          :
          :  # shells                          686          :
          :  # electrons                       826          :
          :  # halogen bonds                     0          :
          :  max. iterations                   250          :
          :  Hamiltonian                  GFN1-xTB          :
          :  restarted?                      false          :
          :  GBSA solvation                  false          :
          :  PC potential                    false          :
          :  electronic temp.          300.0000000     K    :
          :  accuracy                    1.0000000          :
          :  -> integral cutoff          0.2500000E+02      :
          :  -> integral neglect         0.1000000E-07      :
          :  -> SCF convergence          0.1000000E-05 Eh   :
          :  -> wf. convergence          0.2000000E-04 e    :
          :  Broyden damping             0.4000000          :
          ...................................................

 iter      E             dE          RMSdq      gap      omega  full diag
   1   -531.6465325 -0.531647E+03  0.996E+00    0.66       0.0  T
   2   -532.3799414 -0.733409E+00  0.619E+00    1.23       1.0  T
   3   -525.3659351  0.701401E+01  0.464E+00    0.33       1.0  T
   4   -534.1335682 -0.876763E+01  0.114E+00    1.12       1.0  T
   5   -534.9102591 -0.776691E+00  0.274E-01    1.02       1.0  T
   6   -534.9538065 -0.435474E-01  0.116E-01    1.06       1.0  T
   7   -534.9596470 -0.584047E-02  0.517E-02    1.03       1.0  T
   8   -534.9606478 -0.100081E-02  0.290E-02    1.03       1.0  T
   9   -534.9607662 -0.118383E-03  0.195E-02    1.04       1.0  T
  10   -534.9609153 -0.149192E-03  0.478E-03    1.04       1.3  T
  11   -534.9609247 -0.932261E-05  0.183E-03    1.04       3.4  T
  12   -534.9609259 -0.125815E-05  0.953E-04    1.04       6.6  T
  13   -534.9609263 -0.339297E-06  0.520E-04    1.04      12.0  T
  14   -534.9609264 -0.113564E-06  0.181E-04    1.04      34.6  T
  15   -534.9609264 -0.172366E-07  0.569E-05    1.04     109.9  T

   *** convergence criteria satisfied after 15 iterations ***

         #    Occupation            Energy/Eh            Energy/eV
      -------------------------------------------------------------
         1        2.0000           -1.0631748             -28.9305
       ...           ...                  ...                  ...
       407        2.0000           -0.3998403             -10.8802
       408        2.0000           -0.3990395             -10.8584
       409        2.0000           -0.3982701             -10.8375
       410        2.0000           -0.3957745             -10.7696
       411        2.0000           -0.3878358             -10.5535
       412        2.0000           -0.3797005             -10.3322
       413        2.0000           -0.3707833             -10.0895 (HOMO)
       414                         -0.3326867              -9.0529 (LUMO)
       415                         -0.3218113              -8.7569
       416                         -0.3163717              -8.6089
       417                         -0.3155942              -8.5878
       418                         -0.3153622              -8.5814
       ...                                ...                  ...
      1034                        608.0488163           16545.8505
      -------------------------------------------------------------
                  HL-Gap            0.0380967 Eh            1.0367 eV
             Fermi-level           -0.3517350 Eh           -9.5712 eV

 SCC (total)                   0 d,  0 h,  0 min,  7.409 sec
 SCC setup                      ...        0 min,  0.007 sec (  0.099%)
 Dispersion                     ...        0 min,  0.011 sec (  0.144%)
 classical contributions        ...        0 min,  0.004 sec (  0.049%)
 integral evaluation            ...        0 min,  0.715 sec (  9.649%)
 iterations                     ...        0 min,  5.048 sec ( 68.138%)
 molecular gradient             ...        0 min,  1.555 sec ( 20.982%)
 printout                       ...        0 min,  0.069 sec (  0.938%)

         :::::::::::::::::::::::::::::::::::::::::::::::::::::
         ::                     SUMMARY                     ::
         :::::::::::::::::::::::::::::::::::::::::::::::::::::
         :: total energy            -525.313913043057 Eh    ::
         :: gradient norm              0.113994279827 Eh/a0 ::
         :: HOMO-LUMO gap              1.036663232407 eV    ::
         ::.................................................::
         :: SCC energy              -534.960926397611 Eh    ::
         :: -> electrostatic           0.528459985012 Eh    ::
         :: repulsion energy           9.872236679674 Eh    ::
         :: dispersion energy         -0.225223325120 Eh    ::
         :: halogen bond corr.         0.000000000000 Eh    ::
         :: add. restraining           0.000000000000 Eh    ::
         :: total charge               0.000000000000 e     ::
         :::::::::::::::::::::::::::::::::::::::::::::::::::::

           ------------------------------------------------- 
          |        vertical delta SCC IP calculation        |
           ------------------------------------------------- 
   1   -534.5550863 -0.534555E+03  0.932E-02    1.04       0.0  T
   2   -534.5542467  0.839574E-03  0.979E-02    0.99       1.0  T
   3   -534.5600535 -0.580674E-02  0.632E-02    1.02       1.0  T
   4   -534.5623203 -0.226686E-02  0.460E-02    1.02       1.0  T
   5   -534.5639494 -0.162913E-02  0.239E-02    1.02       1.0  T
   6   -534.5641320 -0.182516E-03  0.130E-02    1.02       1.0  T
   7   -534.5642238 -0.918606E-04  0.605E-03    1.02       1.0  T
   8   -534.5642458 -0.219845E-04  0.226E-03    1.02       2.8  T
   9   -534.5642479 -0.210049E-05  0.125E-03    1.02       5.0  T
  10   -534.5642485 -0.601763E-06  0.603E-04    1.02      10.4  T
  11   -534.5642487 -0.202757E-06  0.195E-04    1.02      32.0  T
  12   -534.5642487 -0.162659E-07  0.116E-04    1.02      53.7  T
     SCC iter.                  ...        0 min,  4.039 sec
     gradient                   ...        0 min,  1.555 sec
------------------------------------------------------------------------
empirical IP shift (eV):    4.8455
delta SCC IP (eV):    5.9486
------------------------------------------------------------------------
           ------------------------------------------------- 
          |        vertical delta SCC EA calculation        |
           ------------------------------------------------- 
   1   -535.2349728 -0.535235E+03  0.163E-01    0.35       0.0  T
   2   -535.2496875 -0.147147E-01  0.143E-01    0.13       1.0  T
   3   -535.2636266 -0.139391E-01  0.790E-02    0.24       1.0  T
   4   -535.2645502 -0.923528E-03  0.595E-02    0.19       1.0  T
   5   -535.2636714  0.878744E-03  0.518E-02    0.20       1.0  T
   6   -535.2653078 -0.163639E-02  0.342E-02    0.19       1.0  T
   7   -535.2667839 -0.147612E-02  0.896E-03    0.19       1.0  T
   8   -535.2668430 -0.590785E-04  0.372E-03    0.19       1.7  T
   9   -535.2668488 -0.578040E-05  0.190E-03    0.19       3.3  T
  10   -535.2668509 -0.210450E-05  0.733E-04    0.19       8.5  T
  11   -535.2668511 -0.181017E-06  0.377E-04    0.19      16.6  T
  12   -535.2668511 -0.552378E-07  0.200E-04    0.19      31.3  T
  13   -535.2668511 -0.115070E-07  0.879E-05    0.19      71.1  T
     SCC iter.                  ...        0 min,  4.374 sec
     gradient                   ...        0 min,  1.556 sec
------------------------------------------------------------------------
empirical EA shift (eV):    4.8455
delta SCC EA (eV):    3.4791
------------------------------------------------------------------------
           -------------------------------------------------
          |                Property Printout                |
           -------------------------------------------------

    * Orbital Energies and Occupations

         #    Occupation            Energy/Eh            Energy/eV
      -------------------------------------------------------------
         1        2.0000           -1.0288928             -27.9976
       ...           ...                  ...                  ...
       402        2.0000           -0.3771432             -10.2626
       403        2.0000           -0.3763278             -10.2404
       404        2.0000           -0.3752404             -10.2108
       405        2.0000           -0.3741364             -10.1808
       406        2.0000           -0.3531716              -9.6103
       407        2.0000           -0.3519180              -9.5762
       408        2.0000           -0.3461486              -9.4192
       409        2.0000           -0.3454195              -9.3993
       410        2.0000           -0.3444477              -9.3729
       411        2.0000           -0.3395091              -9.2385
       412        2.0000           -0.3301226              -8.9831
       413        2.0000           -0.3181561              -8.6575
       414        0.9736           -0.2798836              -7.6160 (HOMO)
       415        0.0242           -0.2729420              -7.4271 (LUMO)
       416        0.0018           -0.2704413              -7.3591
       417        0.0004           -0.2690209              -7.3204
       418        0.0000           -0.2641482              -7.1878
       419        0.0000           -0.2632038              -7.1621
       420        0.0000           -0.2619429              -7.1278
       421                         -0.2509002              -6.8273
       422                         -0.2396116              -6.5202
       423                         -0.2380720              -6.4783
       424                         -0.2345976              -6.3837
       425                         -0.2328009              -6.3348
       ...                                ...                  ...
      1034                        608.1004054           16547.2543
      -------------------------------------------------------------
                  HL-Gap            0.0069417 Eh            0.1889 eV
             Fermi-level           -0.2877376 Eh           -7.8297 eV

  Mulliken/CM5 charges         n(s)   n(p)   n(d)
     1C    -0.02618 -0.06701   1.085  2.941  0.000
     2C     0.06116  0.12156   1.105  2.834  0.000
     3C    -0.03716 -0.08249   1.080  2.957  0.000
     4C    -0.03471 -0.07968   1.075  2.960  0.000
     5C     0.06071  0.12468   1.099  2.840  0.000
     6N    -0.16023 -0.51319   1.312  3.848  0.000
     7C     0.00722  0.01296   1.090  2.903  0.000
     8C     0.05780  0.12595   1.116  2.826  0.000
     9C    -0.03808 -0.08412   1.082  2.956  0.000
    10C    -0.03610 -0.08179   1.087  2.949  0.000
    11N    -0.28586 -0.47244   1.293  3.993  0.000
    12C     0.06406  0.13473   1.130  2.806  0.000
    13C     0.01601  0.02314   1.084  2.900  0.000
    14C     0.06515  0.12997   1.109  2.826  0.000
    15C    -0.03318 -0.07780   1.075  2.958  0.000
    16C    -0.03439 -0.07939   1.072  2.963  0.000
    17C     0.06027  0.12367   1.098  2.842  0.000
    18C     0.00544  0.01123   1.088  2.906  0.000
    19C     0.01525  0.00664   1.094  2.891  0.000
    20C    -0.01788 -0.07108   1.076  2.941  0.000
    21C    -0.01258 -0.06417   1.090  2.923  0.000
    22C     0.00480  0.00131   1.087  2.908  0.000
    23C     0.23264  0.28757   1.194  2.573  0.000
    24O    -0.28153 -0.47807   1.681  4.601  0.000
    25O    -0.33149 -0.38119   1.629  4.703  0.000
    26C    -0.01501 -0.06664   1.087  2.928  0.000
    27C    -0.01839 -0.07167   1.078  2.940  0.000
    28C     0.05905  0.12846   1.119  2.822  0.000
    29C    -0.03937 -0.08538   1.086  2.954  0.000
    30C    -0.04104 -0.08745   1.092  2.950  0.000
    31C     0.05814  0.12381   1.125  2.817  0.000
    32N    -0.28986 -0.47694   1.292  3.998  0.000
    33N    -0.15758 -0.50978   1.315  3.843  0.000
    34C     0.01552  0.00690   1.094  2.891  0.000
    35C    -0.01929 -0.07248   1.076  2.943  0.000
    36C    -0.01521 -0.06684   1.087  2.928  0.000
    37C     0.00522  0.00173   1.088  2.907  0.000
    38C     0.23292  0.28785   1.194  2.573  0.000
    39O    -0.28161 -0.47814   1.681  4.601  0.000
    40O    -0.33062 -0.38033   1.628  4.702  0.000
    41C    -0.01177 -0.06336   1.090  2.922  0.000
    42C    -0.01634 -0.06960   1.078  2.938  0.000
    43H     0.02558  0.08462   0.974  0.000  0.000
    44H     0.03677  0.09345   0.963  0.000  0.000
    45H     0.02870  0.08741   0.971  0.000  0.000
    46H     0.16313  0.37145   0.837  0.000  0.000
    47H     0.02077  0.07954   0.979  0.000  0.000
    48H     0.02017  0.07857   0.980  0.000  0.000
    49H     0.02956  0.08792   0.970  0.000  0.000
    50H     0.02976  0.08855   0.970  0.000  0.000
    51H     0.03133  0.08922   0.969  0.000  0.000
    52H     0.04475  0.10523   0.955  0.000  0.000
    53H     0.24140  0.41721   0.759  0.000  0.000
    54H     0.04439  0.10564   0.956  0.000  0.000
    55H     0.02912  0.08710   0.971  0.000  0.000
    56H     0.01932  0.07799   0.981  0.000  0.000
    57H     0.02714  0.08359   0.973  0.000  0.000
    58H     0.16087  0.36913   0.839  0.000  0.000
    59H     0.02953  0.08745   0.970  0.000  0.000
    60H     0.04436  0.10561   0.956  0.000  0.000
    61H     0.24155  0.41735   0.758  0.000  0.000
    62H     0.04559  0.10608   0.954  0.000  0.000
    63H     0.03173  0.08963   0.968  0.000  0.000
    64C    -0.02606 -0.06689   1.085  2.941  0.000
    65C     0.06122  0.12163   1.105  2.834  0.000
    66C    -0.03706 -0.08239   1.080  2.957  0.000
    67C    -0.03472 -0.07971   1.075  2.960  0.000
    68C     0.06085  0.12478   1.099  2.840  0.000
    69N    -0.16024 -0.51322   1.312  3.848  0.000
    70C     0.00675  0.01250   1.089  2.904  0.000
    71C     0.05802  0.12631   1.117  2.825  0.000
    72C    -0.03812 -0.08416   1.083  2.956  0.000
    73C    -0.03615 -0.08180   1.087  2.949  0.000
    74N    -0.28608 -0.47283   1.293  3.993  0.000
    75C     0.06372  0.13423   1.130  2.807  0.000
    76C     0.01629  0.02346   1.085  2.899  0.000
    77C     0.06496  0.12974   1.109  2.826  0.000
    78C    -0.03310 -0.07770   1.075  2.958  0.000
    79C    -0.03436 -0.07937   1.072  2.963  0.000
    80C     0.06038  0.12383   1.098  2.842  0.000
    81C     0.00523  0.01104   1.088  2.906  0.000
    82C     0.01506  0.00647   1.093  2.891  0.000
    83C    -0.01791 -0.07108   1.077  2.941  0.000
    84C    -0.01273 -0.06431   1.090  2.923  0.000
    85C     0.00473  0.00124   1.088  2.908  0.000
    86C     0.23255  0.28748   1.194  2.573  0.000
    87O    -0.28146 -0.47799   1.681  4.601  0.000
    88O    -0.33180 -0.38150   1.629  4.703  0.000
    89C    -0.01505 -0.06669   1.087  2.928  0.000
    90C    -0.01851 -0.07181   1.078  2.940  0.000
    91C     0.05920  0.12858   1.120  2.821  0.000
    92C    -0.03922 -0.08525   1.086  2.953  0.000
    93C    -0.04088 -0.08728   1.091  2.949  0.000
    94C     0.05828  0.12401   1.125  2.817  0.000
    95N    -0.28985 -0.47695   1.292  3.998  0.000
    96N    -0.15760 -0.50985   1.315  3.843  0.000
    97C     0.01538  0.00677   1.094  2.891  0.000
    98C    -0.01929 -0.07252   1.076  2.943  0.000
    99C    -0.01519 -0.06682   1.087  2.928  0.000
   100C     0.00513  0.00164   1.088  2.907  0.000
   101C     0.23281  0.28774   1.194  2.573  0.000
   102O    -0.28147 -0.47799   1.681  4.600  0.000
   103O    -0.33114 -0.38085   1.629  4.703  0.000
   104C    -0.01204 -0.06363   1.090  2.922  0.000
   105C    -0.01653 -0.06975   1.079  2.938  0.000
   106H     0.02582  0.08485   0.974  0.000  0.000
   107H     0.03696  0.09364   0.963  0.000  0.000
   108H     0.02878  0.08749   0.971  0.000  0.000
   109H     0.16320  0.37157   0.837  0.000  0.000
   110H     0.02122  0.07997   0.979  0.000  0.000
   111H     0.02117  0.07947   0.979  0.000  0.000
   112H     0.03008  0.08839   0.970  0.000  0.000
   113H     0.03009  0.08887   0.970  0.000  0.000
   114H     0.03118  0.08915   0.969  0.000  0.000
   115H     0.04461  0.10510   0.955  0.000  0.000
   116H     0.24149  0.41729   0.759  0.000  0.000
   117H     0.04448  0.10571   0.956  0.000  0.000
   118H     0.02902  0.08698   0.971  0.000  0.000
   119H     0.01955  0.07823   0.980  0.000  0.000
   120H     0.02740  0.08384   0.973  0.000  0.000
   121H     0.16088  0.36923   0.839  0.000  0.000
   122H     0.02974  0.08767   0.970  0.000  0.000
   123H     0.04458  0.10581   0.955  0.000  0.000
   124H     0.24165  0.41744   0.758  0.000  0.000
   125H     0.04518  0.10567   0.955  0.000  0.000
   126H     0.03102  0.08899   0.969  0.000  0.000
   127C    -0.02907 -0.03144   1.065  2.964  0.000
   128C    -0.02489 -0.02722   1.070  2.954  0.000
   129C    -0.02765 -0.02988   1.068  2.960  0.000
   130C    -0.02799 -0.03020   1.068  2.960  0.000
   131C    -0.02427 -0.02658   1.071  2.953  0.000
   132C    -0.02877 -0.03111   1.066  2.963  0.000
   133C     0.01033  0.01752   1.079  2.911  0.000
   134C     0.06441  0.12921   1.109  2.826  0.000
   135C    -0.03655 -0.08118   1.073  2.964  0.000
   136C    -0.03514 -0.08015   1.073  2.963  0.000
   137C     0.05784  0.12128   1.095  2.847  0.000
   138N    -0.15777 -0.51022   1.314  3.844  0.000
   139C     0.00891  0.01455   1.091  2.900  0.000
   140C     0.05568  0.12370   1.114  2.830  0.000
   141C    -0.03922 -0.08531   1.082  2.957  0.000
   142C    -0.03896 -0.08476   1.084  2.955  0.000
   143N    -0.28601 -0.47227   1.292  3.994  0.000
   144C     0.06280  0.13349   1.129  2.808  0.000
   145C     0.01246  0.01964   1.082  2.906  0.000
   146C     0.06484  0.12965   1.109  2.826  0.000
   147C    -0.03474 -0.07956   1.073  2.962  0.000
   148C    -0.03476 -0.07978   1.072  2.963  0.000
   149C     0.05824  0.12164   1.095  2.847  0.000
   150C     0.00896  0.01461   1.091  2.900  0.000
   151C     0.01602  0.00734   1.094  2.890  0.000
   152C    -0.01632 -0.06960   1.078  2.938  0.000
   153C    -0.01218 -0.06378   1.090  2.922  0.000
   154C     0.00515  0.00166   1.088  2.907  0.000
   155C     0.23285  0.28782   1.194  2.573  0.000
   156O    -0.28102 -0.47756   1.681  4.600  0.000
   157O    -0.33187 -0.38158   1.628  4.703  0.000
   158C    -0.01469 -0.06632   1.087  2.928  0.000
   159C    -0.01827 -0.07147   1.076  2.942  0.000
   160C     0.05634  0.12449   1.115  2.829  0.000
   161C    -0.03857 -0.08465   1.083  2.955  0.000
   162C    -0.03859 -0.08431   1.085  2.954  0.000
   163C     0.06310  0.13374   1.129  2.807  0.000
   164N    -0.28683 -0.47296   1.292  3.995  0.000
   165N    -0.15702 -0.50945   1.314  3.843  0.000
   166C     0.01595  0.00728   1.094  2.890  0.000
   167C    -0.01764 -0.07088   1.076  2.941  0.000
   168C    -0.01278 -0.06437   1.090  2.923  0.000
   169C     0.00508  0.00159   1.088  2.907  0.000
   170C     0.23281  0.28778   1.194  2.573  0.000
   171O    -0.28071 -0.47724   1.681  4.600  0.000
   172O    -0.33220 -0.38190   1.628  4.704  0.000
   173C    -0.01437 -0.06600   1.087  2.927  0.000
   174C    -0.01723 -0.07050   1.078  2.939  0.000
   175H     0.02630  0.08459   0.974  0.000  0.000
   176H     0.02741  0.08627   0.973  0.000  0.000
   177H     0.16049  0.36843   0.840  0.000  0.000
   178H     0.01870  0.07749   0.981  0.000  0.000
   179H     0.01775  0.07617   0.982  0.000  0.000
   180H     0.02687  0.08539   0.973  0.000  0.000
   181H     0.02796  0.08679   0.972  0.000  0.000
   182H     0.03048  0.08845   0.970  0.000  0.000
   183H     0.04410  0.10459   0.956  0.000  0.000
   184H     0.24119  0.41696   0.759  0.000  0.000
   185H     0.04481  0.10607   0.955  0.000  0.000
   186H     0.03042  0.08840   0.970  0.000  0.000
   187H     0.01865  0.07745   0.981  0.000  0.000
   188H     0.01719  0.07552   0.983  0.000  0.000
   189H     0.16017  0.36814   0.840  0.000  0.000
   190H     0.03081  0.08876   0.969  0.000  0.000
   191H     0.04374  0.10423   0.956  0.000  0.000
   192H     0.24143  0.41718   0.759  0.000  0.000
   193H     0.04511  0.10635   0.955  0.000  0.000
   194H     0.02975  0.08778   0.970  0.000  0.000
   195C     0.01276  0.01996   1.082  2.906  0.000
   196C     0.06499  0.12980   1.110  2.825  0.000
   197C    -0.03447 -0.07928   1.073  2.962  0.000
   198C    -0.03474 -0.07977   1.071  2.963  0.000
   199C     0.05839  0.12181   1.095  2.846  0.000
   200N    -0.15703 -0.50952   1.314  3.843  0.000
   201C     0.00841  0.01408   1.091  2.901  0.000
   202C     0.05642  0.12470   1.115  2.829  0.000
   203C    -0.03895 -0.08501   1.083  2.956  0.000
   204C    -0.03892 -0.08459   1.085  2.954  0.000
   205N    -0.28711 -0.47348   1.292  3.995  0.000
   206C     0.06263  0.13313   1.129  2.808  0.000
   207C     0.01029  0.01753   1.079  2.911  0.000
   208C     0.06426  0.12905   1.109  2.826  0.000
   209C    -0.03670 -0.08130   1.073  2.964  0.000
   210C    -0.03535 -0.08036   1.073  2.963  0.000
   211C     0.05781  0.12130   1.095  2.847  0.000
   212C     0.00869  0.01435   1.091  2.900  0.000
   213C     0.01599  0.00732   1.094  2.890  0.000
   214C    -0.01637 -0.06961   1.079  2.937  0.000
   215C    -0.01228 -0.06388   1.090  2.922  0.000
   216C     0.00486  0.00137   1.088  2.908  0.000
   217C     0.23261  0.28755   1.195  2.573  0.000
   218O    -0.28161 -0.47815   1.681  4.601  0.000
   219O    -0.33184 -0.38154   1.629  4.703  0.000
   220C    -0.01513 -0.06676   1.087  2.928  0.000
   221C    -0.01852 -0.07175   1.076  2.943  0.000
   222C     0.05580  0.12386   1.114  2.830  0.000
   223C    -0.03911 -0.08519   1.082  2.957  0.000
   224C    -0.03868 -0.08450   1.084  2.955  0.000
   225C     0.06304  0.13374   1.129  2.808  0.000
   226N    -0.28596 -0.47229   1.292  3.994  0.000
   227N    -0.15787 -0.51041   1.314  3.844  0.000
   228C     0.01606  0.00739   1.094  2.890  0.000
   229C    -0.01726 -0.07048   1.076  2.941  0.000
   230C    -0.01256 -0.06415   1.090  2.923  0.000
   231C     0.00486  0.00137   1.088  2.908  0.000
   232C     0.23258  0.28751   1.195  2.573  0.000
   233O    -0.28145 -0.47800   1.681  4.600  0.000
   234O    -0.33223 -0.38192   1.629  4.704  0.000
   235C    -0.01471 -0.06634   1.087  2.927  0.000
   236C    -0.01744 -0.07072   1.078  2.939  0.000
   237H     0.02707  0.08555   0.973  0.000  0.000
   238H     0.02788  0.08673   0.972  0.000  0.000
   239H     0.16026  0.36832   0.840  0.000  0.000
   240H     0.01870  0.07746   0.981  0.000  0.000
   241H     0.01776  0.07598   0.982  0.000  0.000
   242H     0.02658  0.08483   0.973  0.000  0.000
   243H     0.02735  0.08615   0.973  0.000  0.000
   244H     0.03068  0.08865   0.969  0.000  0.000
   245H     0.04436  0.10485   0.956  0.000  0.000
   246H     0.24093  0.41673   0.759  0.000  0.000
   247H     0.04432  0.10557   0.956  0.000  0.000
   248H     0.03004  0.08805   0.970  0.000  0.000
   249H     0.01878  0.07756   0.981  0.000  0.000
   250H     0.01795  0.07636   0.982  0.000  0.000
   251H     0.16060  0.36872   0.839  0.000  0.000
   252H     0.03156  0.08951   0.968  0.000  0.000
   253H     0.04411  0.10460   0.956  0.000  0.000
   254H     0.24081  0.41662   0.759  0.000  0.000
   255H     0.04436  0.10561   0.956  0.000  0.000
   256H     0.02914  0.08718   0.971  0.000  0.000

Wiberg/Mayer (AO) data.
largest (>0.10) Wiberg bond orders for each atom

 ---------------------------------------------------------------------------
     #   Z sym  total        # sym  WBO       # sym  WBO       # sym  WBO
 ---------------------------------------------------------------------------
     1   6 C    3.804 --    31 C    1.384     2 C    1.370    43 H    0.996
     2   6 C    3.923 --     1 C    1.370     3 C    1.241     6 N    1.231
     3   6 C    3.833 --     4 C    1.595     2 C    1.241    44 H    0.993
     4   6 C    3.822 --     3 C    1.595     5 C    1.252    45 H    0.999
     5   6 C    3.894 --     7 C    1.341     4 C    1.252     6 N    1.227
     6   7 N    3.242 --     2 C    1.231     5 C    1.227    46 H    0.961
     7   6 C    3.840 --     8 C    1.367     5 C    1.341    34 C    1.054
     8   6 C    3.921 --     7 C    1.367    11 N    1.355     9 C    1.162
     9   6 C    3.834 --    10 C    1.691     8 C    1.162    47 H    0.998
    10   6 C    3.834 --     9 C    1.691    12 C    1.167    48 H    0.999
    11   7 N    2.558 --    12 C    1.414     8 C    1.355
    12   6 C    3.942 --    11 N    1.414    13 C    1.291    10 C    1.167
    13   6 C    3.831 --    12 C    1.291    14 C    1.288   127 C    1.209
    14   6 C    3.902 --    13 C    1.288    15 C    1.271    33 N    1.250
    15   6 C    3.815 --    16 C    1.577    14 C    1.271    49 H    0.999
    16   6 C    3.810 --    15 C    1.577    17 C    1.262    50 H    0.998
    17   6 C    3.887 --    18 C    1.336    16 C    1.262    33 N    1.225
    18   6 C    3.823 --    28 C    1.361    17 C    1.336    19 C    1.057
    19   6 C    3.896 --    27 C    1.416    20 C    1.416    18 C    1.057
    20   6 C    3.859 --    21 C    1.466    19 C    1.416    51 H    0.988
    21   6 C    3.896 --    20 C    1.466    22 C    1.399    52 H    0.986
    22   6 C    3.897 --    21 C    1.399    26 C    1.399    23 C    1.041
    23   6 C    4.097 --    25 O    1.816    24 O    1.209    22 C    1.041
    24   8 O    2.365 --    23 C    1.209    53 H    0.944    25 O    0.183
    25   8 O    2.030 --    23 C    1.816    24 O    0.183
    26   6 C    3.893 --    27 C    1.465    22 C    1.399    54 H    0.986
    27   6 C    3.863 --    26 C    1.465    19 C    1.416    55 H    0.988
    28   6 C    3.944 --    32 N    1.377    18 C    1.361    29 C    1.152
    29   6 C    3.842 --    30 C    1.707    28 C    1.152    56 H    1.000
    30   6 C    3.861 --    29 C    1.707    31 C    1.146    57 H    0.994
    31   6 C    3.966 --     1 C    1.384    32 N    1.375    30 C    1.146
    32   7 N    2.541 --    28 C    1.377    31 C    1.375
    33   7 N    3.256 --    14 C    1.250    17 C    1.225    58 H    0.961
    34   6 C    3.897 --    35 C    1.418    42 C    1.417     7 C    1.054
    35   6 C    3.860 --    36 C    1.463    34 C    1.418    59 H    0.988
    36   6 C    3.893 --    35 C    1.463    37 C    1.400    60 H    0.986
    37   6 C    3.898 --    41 C    1.400    36 C    1.400    38 C    1.040
    38   6 C    4.098 --    40 O    1.817    39 O    1.209    37 C    1.040
    39   8 O    2.365 --    38 C    1.209    61 H    0.944    40 O    0.183
    40   8 O    2.031 --    38 C    1.817    39 O    0.183
    41   6 C    3.896 --    42 C    1.466    37 C    1.400    62 H    0.985
    42   6 C    3.864 --    41 C    1.466    34 C    1.417    63 H    0.988
    43   1 H    1.033 --     1 C    0.996
    44   1 H    1.017 --     3 C    0.993
    45   1 H    1.032 --     4 C    0.999
    46   1 H    1.082 --     6 N    0.961
    47   1 H    1.035 --     9 C    0.998
    48   1 H    1.039 --    10 C    0.999
    49   1 H    1.033 --    15 C    0.999
    50   1 H    1.031 --    16 C    0.998
    51   1 H    1.046 --    20 C    0.988
    52   1 H    1.031 --    21 C    0.986
    53   1 H    0.981 --    24 O    0.944
    54   1 H    1.022 --    26 C    0.986
    55   1 H    1.050 --    27 C    0.988
    56   1 H    1.035 --    29 C    1.000
    57   1 H    1.020 --    30 C    0.994
    58   1 H    1.086 --    33 N    0.961
    59   1 H    1.046 --    35 C    0.988
    60   1 H    1.022 --    36 C    0.986
    61   1 H    0.981 --    39 O    0.944
    62   1 H    1.031 --    41 C    0.985
    63   1 H    1.049 --    42 C    0.988
    64   6 C    3.805 --    94 C    1.384    65 C    1.370   106 H    0.996
    65   6 C    3.923 --    64 C    1.370    66 C    1.241    69 N    1.231
    66   6 C    3.833 --    67 C    1.595    65 C    1.241   107 H    0.993
    67   6 C    3.821 --    66 C    1.595    68 C    1.252   108 H    0.999
    68   6 C    3.894 --    70 C    1.341    67 C    1.252    69 N    1.227
    69   7 N    3.243 --    65 C    1.231    68 C    1.227   109 H    0.961
    70   6 C    3.839 --    71 C    1.364    68 C    1.341    97 C    1.056
    71   6 C    3.922 --    70 C    1.364    74 N    1.359    72 C    1.161
    72   6 C    3.836 --    73 C    1.692    71 C    1.161   110 H    0.998
    73   6 C    3.836 --    72 C    1.692    75 C    1.167   111 H    1.000
    74   7 N    2.557 --    75 C    1.410    71 C    1.359
    75   6 C    3.945 --    74 N    1.410    76 C    1.297    73 C    1.167
    76   6 C    3.831 --    75 C    1.297    77 C    1.290   132 C    1.200
    77   6 C    3.903 --    76 C    1.290    78 C    1.270    96 N    1.248
    78   6 C    3.814 --    79 C    1.577    77 C    1.270   112 H    0.999
    79   6 C    3.810 --    78 C    1.577    80 C    1.262   113 H    0.998
    80   6 C    3.888 --    81 C    1.334    79 C    1.262    96 N    1.226
    81   6 C    3.823 --    91 C    1.361    80 C    1.334    82 C    1.058
    82   6 C    3.896 --    90 C    1.416    83 C    1.415    81 C    1.058
    83   6 C    3.859 --    84 C    1.467    82 C    1.415   114 H    0.988
    84   6 C    3.896 --    83 C    1.467    85 C    1.399   115 H    0.985
    85   6 C    3.897 --    89 C    1.399    84 C    1.399    86 C    1.041
    86   6 C    4.097 --    88 O    1.816    87 O    1.209    85 C    1.041
    87   8 O    2.365 --    86 C    1.209   116 H    0.944    88 O    0.183
    88   8 O    2.029 --    86 C    1.816    87 O    0.183
    89   6 C    3.892 --    90 C    1.464    85 C    1.399   117 H    0.986
    90   6 C    3.863 --    89 C    1.464    82 C    1.416   118 H    0.988
    91   6 C    3.944 --    95 N    1.377    81 C    1.361    92 C    1.152
    92   6 C    3.842 --    93 C    1.707    91 C    1.152   119 H    1.000
    93   6 C    3.861 --    92 C    1.707    94 C    1.146   120 H    0.993
    94   6 C    3.966 --    64 C    1.384    95 N    1.376    93 C    1.146
    95   7 N    2.541 --    91 C    1.377    94 C    1.376
    96   7 N    3.257 --    77 C    1.248    80 C    1.226   121 H    0.961
    97   6 C    3.897 --    98 C    1.418   105 C    1.416    70 C    1.056
    98   6 C    3.860 --    99 C    1.463    97 C    1.418   122 H    0.988
    99   6 C    3.892 --    98 C    1.463   100 C    1.400   123 H    0.986
   100   6 C    3.898 --    99 C    1.400   104 C    1.399   101 C    1.041
   101   6 C    4.097 --   103 O    1.817   102 O    1.209   100 C    1.041
   102   8 O    2.366 --   101 C    1.209   124 H    0.944   103 O    0.183
   103   8 O    2.030 --   101 C    1.817   102 O    0.183
   104   6 C    3.896 --   105 C    1.467   100 C    1.399   125 H    0.985
   105   6 C    3.864 --   104 C    1.467    97 C    1.416   126 H    0.988
   106   1 H    1.033 --    64 C    0.996
   107   1 H    1.017 --    66 C    0.993
   108   1 H    1.032 --    67 C    0.999
   109   1 H    1.082 --    69 N    0.961
   110   1 H    1.034 --    72 C    0.998
   111   1 H    1.036 --    73 C    1.000
   112   1 H    1.032 --    78 C    0.999
   113   1 H    1.030 --    79 C    0.998
   114   1 H    1.046 --    83 C    0.988
   115   1 H    1.031 --    84 C    0.985
   116   1 H    0.981 --    87 O    0.944
   117   1 H    1.022 --    89 C    0.986
   118   1 H    1.050 --    90 C    0.988
   119   1 H    1.035 --    92 C    1.000
   120   1 H    1.020 --    93 C    0.993
   121   1 H    1.086 --    96 N    0.961
   122   1 H    1.046 --    98 C    0.988
   123   1 H    1.022 --    99 C    0.986
   124   1 H    0.980 --   102 O    0.944
   125   1 H    1.031 --   104 C    0.985
   126   1 H    1.050 --   105 C    0.988
   127   6 C    3.752 --   128 C    2.611    13 C    1.209
   128   6 C    3.756 --   127 C    2.611   133 C    1.211
   129   6 C    3.755 --   130 C    2.596   145 C    1.227
   130   6 C    3.754 --   129 C    2.596   195 C    1.227
   131   6 C    3.755 --   132 C    2.617   207 C    1.202
   132   6 C    3.751 --   131 C    2.617    76 C    1.200
   133   6 C    3.812 --   163 C    1.287   134 C    1.282   128 C    1.211
   134   6 C    3.905 --   133 C    1.282   135 C    1.274   138 N    1.253
   135   6 C    3.809 --   136 C    1.571   134 C    1.274   175 H    0.999
   136   6 C    3.815 --   135 C    1.571   137 C    1.267   176 H    0.999
   137   6 C    3.883 --   139 C    1.333   136 C    1.267   138 N    1.221
   138   7 N    3.243 --   134 C    1.253   137 C    1.221   177 H    0.963
   139   6 C    3.829 --   140 C    1.372   137 C    1.333   166 C    1.058
   140   6 C    3.922 --   139 C    1.372   143 N    1.350   141 C    1.164
   141   6 C    3.832 --   142 C    1.686   140 C    1.164   178 H    0.999
   142   6 C    3.827 --   141 C    1.686   144 C    1.171   179 H    1.000
   143   7 N    2.540 --   144 C    1.421   140 C    1.350
   144   6 C    3.941 --   143 N    1.421   145 C    1.281   142 C    1.171
   145   6 C    3.815 --   144 C    1.281   146 C    1.276   129 C    1.227
   146   6 C    3.902 --   147 C    1.278   145 C    1.276   165 N    1.254
   147   6 C    3.806 --   148 C    1.569   146 C    1.278   180 H    0.999
   148   6 C    3.809 --   147 C    1.569   149 C    1.269   181 H    0.999
   149   6 C    3.883 --   150 C    1.329   148 C    1.269   165 N    1.223
   150   6 C    3.827 --   160 C    1.377   149 C    1.329   151 C    1.057
   151   6 C    3.896 --   159 C    1.417   152 C    1.416   150 C    1.057
   152   6 C    3.862 --   153 C    1.466   151 C    1.416   182 H    0.988
   153   6 C    3.896 --   152 C    1.466   154 C    1.400   183 H    0.986
   154   6 C    3.897 --   153 C    1.400   158 C    1.399   155 C    1.040
   155   6 C    4.097 --   157 O    1.816   156 O    1.209   154 C    1.040
   156   8 O    2.366 --   155 C    1.209   184 H    0.944   157 O    0.183
   157   8 O    2.030 --   155 C    1.816   156 O    0.183
   158   6 C    3.892 --   159 C    1.464   154 C    1.399   185 H    0.986
   159   6 C    3.859 --   158 C    1.464   151 C    1.417   186 H    0.988
   160   6 C    3.924 --   150 C    1.377   164 N    1.349   161 C    1.162
   161   6 C    3.835 --   162 C    1.690   160 C    1.162   187 H    0.999
   162   6 C    3.830 --   161 C    1.690   163 C    1.168   188 H    1.000
   163   6 C    3.944 --   164 N    1.419   133 C    1.287   162 C    1.168
   164   7 N    2.538 --   163 C    1.419   160 C    1.349
   165   7 N    3.245 --   146 C    1.254   149 C    1.223   189 H    0.963
   166   6 C    3.896 --   174 C    1.417   167 C    1.416   139 C    1.058
   167   6 C    3.858 --   168 C    1.466   166 C    1.416   190 H    0.988
   168   6 C    3.896 --   167 C    1.466   169 C    1.400   191 H    0.986
   169   6 C    3.897 --   168 C    1.400   173 C    1.399   170 C    1.040
   170   6 C    4.097 --   172 O    1.816   171 O    1.210   169 C    1.040
   171   8 O    2.367 --   170 C    1.210   192 H    0.944   172 O    0.183
   172   8 O    2.029 --   170 C    1.816   171 O    0.183
   173   6 C    3.892 --   174 C    1.464   169 C    1.399   193 H    0.986
   174   6 C    3.863 --   173 C    1.464   166 C    1.417   194 H    0.988
   175   1 H    1.033 --   135 C    0.999
   176   1 H    1.032 --   136 C    0.999
   177   1 H    1.083 --   138 N    0.963
   178   1 H    1.037 --   141 C    0.999
   179   1 H    1.036 --   142 C    1.000
   180   1 H    1.033 --   147 C    0.999
   181   1 H    1.031 --   148 C    0.999
   182   1 H    1.049 --   152 C    0.988
   183   1 H    1.032 --   153 C    0.986
   184   1 H    0.981 --   156 O    0.944
   185   1 H    1.022 --   158 C    0.986
   186   1 H    1.046 --   159 C    0.988
   187   1 H    1.036 --   161 C    0.999
   188   1 H    1.038 --   162 C    1.000
   189   1 H    1.083 --   165 N    0.963
   190   1 H    1.046 --   167 C    0.988
   191   1 H    1.031 --   168 C    0.986
   192   1 H    0.981 --   171 O    0.944
   193   1 H    1.022 --   173 C    0.986
   194   1 H    1.049 --   174 C    0.988
   195   6 C    3.816 --   225 C    1.280   196 C    1.276   130 C    1.227
   196   6 C    3.902 --   197 C    1.278   195 C    1.276   200 N    1.253
   197   6 C    3.807 --   198 C    1.569   196 C    1.278   237 H    0.999
   198   6 C    3.808 --   197 C    1.569   199 C    1.268   238 H    0.999
   199   6 C    3.883 --   201 C    1.330   198 C    1.268   200 N    1.223
   200   7 N    3.246 --   196 C    1.253   199 C    1.223   239 H    0.963
   201   6 C    3.826 --   202 C    1.374   199 C    1.330   228 C    1.058
   202   6 C    3.924 --   201 C    1.374   205 N    1.352   203 C    1.161
   203   6 C    3.837 --   204 C    1.691   202 C    1.161   240 H    0.999
   204   6 C    3.832 --   203 C    1.691   206 C    1.167   241 H    1.000
   205   7 N    2.537 --   206 C    1.414   202 C    1.352
   206   6 C    3.946 --   205 N    1.414   207 C    1.292   204 C    1.167
   207   6 C    3.811 --   206 C    1.292   208 C    1.284   131 C    1.202
   208   6 C    3.906 --   207 C    1.284   209 C    1.273   227 N    1.252
   209   6 C    3.808 --   210 C    1.572   208 C    1.273   242 H    0.999
   210   6 C    3.814 --   209 C    1.572   211 C    1.267   243 H    0.999
   211   6 C    3.883 --   212 C    1.333   210 C    1.267   227 N    1.222
   212   6 C    3.830 --   222 C    1.372   211 C    1.333   213 C    1.057
   213   6 C    3.896 --   221 C    1.417   214 C    1.416   212 C    1.057
   214   6 C    3.863 --   215 C    1.466   213 C    1.416   244 H    0.988
   215   6 C    3.896 --   214 C    1.466   216 C    1.399   245 H    0.986
   216   6 C    3.897 --   215 C    1.399   220 C    1.399   217 C    1.041
   217   6 C    4.097 --   219 O    1.816   218 O    1.209   216 C    1.041
   218   8 O    2.366 --   217 C    1.209   246 H    0.944   219 O    0.183
   219   8 O    2.030 --   217 C    1.816   218 O    0.183
   220   6 C    3.892 --   221 C    1.464   216 C    1.399   247 H    0.986
   221   6 C    3.859 --   220 C    1.464   213 C    1.417   248 H    0.988
   222   6 C    3.922 --   212 C    1.372   226 N    1.350   223 C    1.164
   223   6 C    3.831 --   224 C    1.686   222 C    1.164   249 H    0.999
   224   6 C    3.827 --   223 C    1.686   225 C    1.172   250 H    0.999
   225   6 C    3.941 --   226 N    1.421   195 C    1.280   224 C    1.172
   226   7 N    2.540 --   225 C    1.421   222 C    1.350
   227   7 N    3.243 --   208 C    1.252   211 C    1.222   251 H    0.962
   228   6 C    3.896 --   236 C    1.417   229 C    1.416   201 C    1.058
   229   6 C    3.858 --   230 C    1.466   228 C    1.416   252 H    0.988
   230   6 C    3.896 --   229 C    1.466   231 C    1.399   253 H    0.986
   231   6 C    3.897 --   230 C    1.399   235 C    1.399   232 C    1.041
   232   6 C    4.097 --   234 O    1.816   233 O    1.209   231 C    1.041
   233   8 O    2.366 --   232 C    1.209   254 H    0.944   234 O    0.183
   234   8 O    2.029 --   232 C    1.816   233 O    0.183
   235   6 C    3.892 --   236 C    1.465   231 C    1.399   255 H    0.986
   236   6 C    3.863 --   235 C    1.465   228 C    1.417   256 H    0.989
   237   1 H    1.033 --   197 C    0.999
   238   1 H    1.032 --   198 C    0.999
   239   1 H    1.083 --   200 N    0.963
   240   1 H    1.035 --   203 C    0.999
   241   1 H    1.036 --   204 C    1.000
   242   1 H    1.031 --   209 C    0.999
   243   1 H    1.031 --   210 C    0.999
   244   1 H    1.049 --   214 C    0.988
   245   1 H    1.031 --   215 C    0.986
   246   1 H    0.981 --   218 O    0.944
   247   1 H    1.022 --   220 C    0.986
   248   1 H    1.046 --   221 C    0.988
   249   1 H    1.035 --   223 C    0.999
   250   1 H    1.037 --   224 C    0.999
   251   1 H    1.083 --   227 N    0.962
   252   1 H    1.046 --   229 C    0.988
   253   1 H    1.031 --   230 C    0.986
   254   1 H    0.981 --   233 O    0.944
   255   1 H    1.022 --   235 C    0.986
   256   1 H    1.050 --   236 C    0.989
 ---------------------------------------------------------------------------

Topologies differ in total number of bonds
Writing topology from bond orders to xtbtopo.mol

 dipole moment from electron density (au)
     X       Y       Z   
-137.7661  -0.0127   0.0254  total (Debye):  350.166


           -------------------------------------------------
          | TOTAL ENERGY             -525.619837786403 Eh   |
          | GRADIENT NORM               0.114736945021 Eh/α |
          | HOMO-LUMO GAP               0.188892898950 eV   |
           -------------------------------------------------
########################################################################
[WARNING] Runtime exception occurred
-1- restart_readRestart: Dimension missmatch in restart file.
########################################################################

------------------------------------------------------------------------
 * finished run on 2022/07/30 at 03:28:58.090     
------------------------------------------------------------------------
 total:
 * wall-time:     0 d,  0 h,  0 min, 21.226 sec
 *  cpu-time:     0 d,  0 h,  0 min, 21.137 sec
 * ratio c/w:     0.996 speedup
 SCF:
 * wall-time:     0 d,  0 h,  0 min, 20.544 sec
 *  cpu-time:     0 d,  0 h,  0 min, 20.460 sec
 * ratio c/w:     0.996 speedup

