250
 energy: -494.135025712047 gnorm: 0.000903253712 xtb: 6.5.1 (b24c23e)
Fe          48.50032190341113        0.00082426791982       -0.06660173746963
C           45.11115198729548       -0.02062746508499       -0.19730489738953
C           45.76508735102826       -1.23442805996619       -0.23757231529077
C           45.09078124242478       -2.49577129197067       -0.30615039076589
C           46.05108739651016       -3.44324229580259       -0.41506149996032
C           47.31091150680805       -2.75649237819586       -0.42610858500375
N           47.12374000443541       -1.40942880369654       -0.27818274205206
C           48.53806958433151       -3.38651568677076       -0.60396500122492
C           48.55239131192378       -4.84573561083589       -0.85631913852631
C           49.19242445962341       -5.71309029842145        0.03354959789225
C           49.21121048525102       -7.07540145951534       -0.20517552065083
C           48.58912415721949       -7.57315815360246       -1.34642828083688
N           48.61204073893088       -9.00251831907229       -1.60585873646030
O           48.05174626588910       -9.39815021688442       -2.59552362602260
O           49.19032482538642       -9.70300177705851       -0.81551887831839
C           47.94681276220597       -6.72620807826187       -2.24496041650932
C           47.92886595489493       -5.36633449985104       -1.99418197760352
C           49.74841666661803       -2.70816306698007       -0.57493474690782
C           51.01843155364938       -3.32720558396186       -0.81521953049068
C           51.95853659752186       -2.36700907772702       -0.64682335148879
N           49.91315249435040       -1.37226974939689       -0.29796430437561
C           51.26063389610474       -1.16492468089018       -0.31255960023623
C           51.91101681527183        0.03365139030531        0.00297669602921
C           51.22599024625743        1.21421901819872        0.31295908855025
C           51.88626525380715        2.42160365552300        0.70008881772808
C           50.92001834831448        3.35606594765433        0.86591065920581
C           49.67296640868094        2.71857263583748        0.56181707665521
N           49.87556951328031        1.39309763214116        0.25973007785055
C           48.45133307929499        3.37615342393363        0.53917147657533
C           48.42316956511756        4.83015417163909        0.81972379426376
C           47.72259626020862        5.31681991299709        1.92729144049346
C           47.69501477815644        6.67221536902165        2.20072316618225
C           48.36837698689857        7.54866188178182        1.35472423325102
N           48.34141839538415        8.97372577514817        1.63650032935395
O           47.71923210746453        9.33939460744482        2.60035719744428
O           48.94319000602629        9.70095977519293        0.88901596656669
C           49.06712737419744        7.08470394846705        0.24399308817572
C           49.09385902052362        5.72664959712742       -0.01706864159835
C           47.24913729014916        2.73399977233884        0.26138088062939
C           45.98573577357574        3.40673097499691        0.16102550428366
C           45.05100690068682        2.45214178178329       -0.05527403943853
C           45.74465312434191        1.19991142071451       -0.09175574208968
N           47.09253163731579        1.38878329198487        0.06999801061643
H           44.02816453372116       -0.02692148129156       -0.24474433499893
H           44.02021279726569       -2.61955604563634       -0.27212217522750
H           45.93053885862251       -4.51250569373935       -0.47758834012132
H           49.66434248263730       -5.31331013822153        0.92344547625324
H           49.70029246105354       -7.75691954442571        0.48039718618940
H           47.47304813471415       -7.13871391343865       -3.12759444446607
H           47.44286247782739       -4.69410748995186       -2.69159012994556
H           51.16205846255351       -4.36059168233511       -1.08527353265370
H           53.02946164484117       -2.44987073916063       -0.73769750598630
H           52.95160595326271        2.52377090426124        0.82948027361766
H           51.03150677188048        4.38397711977292        1.16995366257492
H           47.21096154715043        4.62201448503153        2.58300192104745
H           47.16102283833854        7.05894641016695        3.06035432042021
H           49.57859709292289        7.78870861002167       -0.40134726594340
H           49.62502991452617        5.35294080573159       -0.88463684915614
H           45.84658153614632        4.47270011210836        0.23940439085026
H           43.98588737426770        2.56517026084562       -0.17911754943508
Fe          88.76595639941651        0.06198507540527       -0.02405730853619
C           92.15243224387011        0.12509516163990       -0.16191482206348
C           91.50318391658676        1.26427996768406        0.26684055693920
C           92.18028323108371        2.45632272330566        0.68054394463583
C           91.22254138638289        3.38014473603928        0.92836583619932
C           89.96156888866533        2.75339410546902        0.65279475817225
N           90.14520015156984        1.44745464626060        0.28956915382862
C           88.73679108993184        3.41111545220066        0.70427549679165
C           88.72408687462253        4.85990748350790        1.01000215133029
C           88.06758163648290        5.33536588250325        2.14890148966297
C           88.04990894028484        6.68826527983484        2.43575335808935
C           88.68928614184235        7.57331517475634        1.57257487836827
N           88.66787725864454        8.99627196780562        1.86560753133143
O           89.24120302715293        9.73078430863928        1.10308993574719
O           88.07828481466504        9.35281777600413        2.85309307109136
C           89.34747536705504        7.12019469590075        0.43297717795887
C           89.36467593214148        5.76479932353708        0.15847572983318
C           87.52602546866601        2.77410204505443        0.47123181577102
C           86.25818965465021        3.44213774766189        0.45611192820692
C           85.31565961855267        2.48617091634917        0.27591035762590
N           87.35771694365290        1.42689527859206        0.25891801039345
C           86.01012016891329        1.24073622186543        0.17430194989579
C           85.35804507090268        0.00485247964272        0.08116564236651
C           86.04373408952574       -1.21016218648923       -0.04037549102477
C           85.38672243307539       -2.47888446458096       -0.08770354289777
C           86.34923805378652       -3.40602423684132       -0.30884666188940
C           87.59049628499515       -2.69655568247798       -0.40830046264345
N           87.38977065175470       -1.35298364907883       -0.20002519842846
C           88.80362372149932       -3.29355921768544       -0.72053873377636
C           88.82271709074925       -4.74463098589781       -1.01604085384207
C           89.55282535986684       -5.61883335270992       -0.20560508514224
C           89.57033728977498       -6.97552492416062       -0.47384438509059
C           88.85736273003380       -7.46034075429599       -1.56648144883384
N           88.87431780977984       -8.88441811213526       -1.85436788841934
O           89.52175003069007       -9.59226664189644       -1.12673629720395
O           88.23961329984346       -9.26860217533650       -2.80269950223077
C           88.12814976110523       -6.60587363295540       -2.38826964180447
C           88.11132827970235       -5.25173389292571       -2.10725622092270
C           90.00355938579608       -2.59138568744811       -0.77084521712782
C           91.26019676868839       -3.17375655162273       -1.14566240553322
C           92.19863519220495       -2.21066163212073       -0.99101085652818
C           91.51340967638393       -1.04037144901311       -0.53104472752710
N           90.16656616711580       -1.27542922350330       -0.43555502527006
H           93.23526966625165        0.14611881989772       -0.20865946681864
H           93.25083000547515        2.55392484073018        0.76422117728119
H           91.34560300646650        4.39477435707172        1.27067829763783
H           87.58207604682536        4.63420535319860        2.81757327582071
H           87.54856852794505        7.06661092102592        3.31847092447455
H           89.83420868976087        7.83044905213306       -0.22451161284679
H           89.86325217981721        5.39953401764027       -0.73171691006516
H           86.11763425444468        4.50529546328559        0.56303457615122
H           84.24518862652111        2.59865301740551        0.21693398203407
H           84.32576396718309       -2.62528161245568        0.03513326703235
H           86.23927094892649       -4.47476346002415       -0.39393437381352
H           90.09534100386688       -5.22896373540572        0.64769335170619
H           90.12688829757198       -7.66258253865900        0.15216050033366
H           87.58564789300767       -7.00839213265568       -3.23523287770036
H           87.55594534872338       -4.57371184513902       -2.74469169622790
H           91.39307555644518       -4.18766822008054       -1.48645736798751
H           93.26112007200601       -2.26855887006801       -1.16530218043385
C           54.53645207887944        0.05487525712482        0.01481996825560
C           53.31278353541445        0.04883110941782        0.01405913991595
C           55.88314185635458        0.05856172860750        0.01145966585633
C           57.10698454655672        0.05325897846338        0.00433596954021
C           67.96603833951644        0.04405603799219        0.07230911039234
C           66.74127518905387        0.04687881805901        0.07643559555820
C           69.31073509239626        0.03239640961141        0.06694421406372
C           70.53536321019504        0.02248809483736        0.04931733025827
C           81.38817374289316       -0.02435238115228        0.12646468277785
C           80.16383450775778       -0.02070968108189        0.12063229370726
C           82.73386314490935       -0.02055897471753        0.12337597545215
C           83.95791085377547       -0.01426271947708        0.10858423757051
Fe          61.92545289332860        0.04710788151166        0.00186731699084
C           58.50789694078978        0.05059102629444       -0.00250147112049
C           59.17637208465027       -1.16744591770628        0.17247984015844
C           58.49859753546063       -2.40770993960222        0.38314749781126
C           59.45173436046304       -3.37060777000624        0.40562439004256
C           60.70686919136474       -2.71130746477354        0.20244494693262
N           60.52455794361752       -1.35503034923967        0.09677791347129
C           61.92298962163568       -3.37564592051485        0.09422237424705
C           61.91790481324031       -4.85658925617014        0.12243612451133
C           62.57649101108800       -5.54611914294445        1.14440689000760
C           62.57104489928684       -6.92902540203407        1.17438303602689
C           61.90696906928202       -7.62677056938880        0.16995852299605
N           61.90132413940882       -9.08034513104669        0.19492848840126
O           61.31953900223722       -9.64978948634967       -0.69170236535625
O           62.47901847329891       -9.62338130752423        1.10067572807243
C           61.24777533411635       -6.95881618721249       -0.85767287490705
C           61.25308455805416       -5.57579209693357       -0.87487820724434
C           63.14100643337020       -2.72170303944303       -0.03475379412805
C           64.39887282969477       -3.39190566061824       -0.17919219383128
C           65.35396152110290       -2.43096131907265       -0.17745704987857
N           63.32558724140168       -1.36101159175282        0.00793907149604
C           64.67441437822889       -1.18046478744225       -0.04622130893834
C           65.34245669934147        0.04685879324522        0.06192794976019
C           64.67038066404332        1.27400751882681        0.13935286691106
C           65.34462603107360        2.52675562018724        0.27613242546503
C           64.39186125281763        3.48788164547049        0.21060891697158
C           63.14086302758739        2.81481096293558        0.02611455733849
N           63.32507185178709        1.45375617739874        0.02293380883607
C           61.92943921090672        3.46668309149813       -0.16403652794188
C           61.93269994174357        4.94567123798125       -0.24427599191572
C           62.62648811197042        5.59266772088512       -1.27088281574704
C           62.63006602284580        6.97335464925709       -1.35379692101554
C           61.93930525578366        7.71203158636970       -0.39779716575734
N           61.94220069404219        9.16354637303525       -0.47874679956169
O           62.56243376085521        9.66933112352759       -1.37791435429477
O           61.32390269421863        9.76869154538136        0.35812104650128
C           61.24593297374768        7.08692385876998        0.63433512537667
C           61.24319029124483        5.70554369069806        0.70490703008774
C           60.71423529538274        2.80191963536581       -0.27629355758661
C           59.46136039929953        3.45771721510327       -0.50357590732849
C           58.50476449595824        2.49986426446337       -0.44328132791015
C           59.17909444840586        1.26454993326867       -0.19610990480114
N           60.52774980015901        1.44961089556819       -0.12953740655370
H           57.43174945346495       -2.51318202680422        0.49553948545667
H           59.32593276603276       -4.43067394258914        0.55327138330931
H           63.08090324957401       -4.98998241156677        1.92588842596315
H           63.07314380392638       -7.47348292860048        1.96506560186795
H           60.74108591358321       -7.52607878788233       -1.62917679377234
H           60.75185452313333       -5.04253818212414       -1.67414481181084
H           64.52570722262962       -4.45793422089553       -0.27338251407254
H           66.42291353311077       -2.54363558679559       -0.25860552696624
H           66.40885787439400        2.64048134265868        0.40459770731888
H           64.51497449134949        4.55587346374180        0.28626158382472
H           63.15172687284446        5.00453072483300       -2.01429900418181
H           63.15915462368942        7.48478637042999       -2.14892759999146
H           60.71968732897143        7.68569159563317        1.36799156791994
H           60.71625580771425        5.20586879513801        1.50934292552324
H           59.33865677678809        4.51223810217841       -0.68862643522250
H           57.43809993496274        2.60503870831878       -0.55773395177079
Fe          75.34969498026129       -0.00328687196233        0.02046211935613
C           71.93397571274420        0.01403892122720        0.03204453382985
C           72.59977676213974       -1.20587026229668        0.21241684615451
C           71.91969564832675       -2.44311252761426        0.43489541738553
C           72.86852525203048       -3.41051949596734        0.44059671701524
C           74.12342342510526       -2.75698631788737        0.21709405832243
N           73.94488207799284       -1.39910751849611        0.11682150975935
C           75.33417677464318       -3.42419713778162        0.08207636744726
C           75.32594134466378       -4.90519642752233        0.10414026222558
C           75.99865818151483       -5.59888117341085        1.11405110028825
C           75.98963231453870       -6.98176757182982        1.14115764331880
C           75.30844160596642       -7.67526251860555        0.14529208729739
N           75.29987300479263       -9.12899247862401        0.16661316447486
O           74.70444138852156       -9.69463211492073       -0.71324168021445
O           75.88683205997741       -9.67572712322414        1.06424747445589
C           74.63520096691894       -7.00312681105158       -0.87039256440594
C           74.64344190877327       -5.62000471479617       -0.88419688926996
C           76.55292372362584       -2.77233607601378       -0.06128873704593
C           77.80633949133082       -3.44415905031351       -0.23125717444748
C           78.76553053215699       -2.48686153132173       -0.21766447882353
N           76.74279706553405       -1.41397719941593        0.00400508472344
C           78.09256392531677       -1.23703003534276       -0.05400165679464
C           78.76446477898733       -0.01643962396839        0.09564029150513
C           78.09504256244080        1.21011421481533        0.19951388263294
C           78.76941100066924        2.45926124262080        0.36295250526436
C           77.82101434173418        3.42426546272695        0.28474252108455
C           76.57234661001415        2.75685584577270        0.06933147267186
N           76.75198240970840        1.39606276395582        0.06013399398437
C           75.36631673402543        3.41404883524155       -0.14414879920492
C           75.37807112684096        4.89283453337694       -0.22603030230782
C           76.09259073064445        5.53536510695867       -1.24110327627928
C           76.10443377662941        6.91595331551210       -1.32499724353361
C           75.40168789813181        7.65892409503674       -0.38110209469073
N           75.41391417341377        9.11043975155018       -0.46245146867912
O           76.05102355009089        9.61240040917185       -1.35182917497573
O           74.78601686100552        9.71927064303445        0.36453248477559
C           74.68790222530347        7.03824462158886        0.63964602906029
C           74.67649904689449        5.65694938698940        0.71081698287904
C           74.15096165239046        2.75438475164715       -0.27178882093971
C           72.90136002291553        3.41229327444980       -0.51206308600172
C           71.94072097702220        2.45893048087623       -0.44419307381567
C           72.60957846454778        1.22360109160639       -0.18137766866732
N           73.95778517005691        1.40335328017959       -0.11476822887638
H           70.85426590676029       -2.54360467591540        0.56432582174211
H           72.74024851549923       -4.47029588164959        0.58850018123092
H           76.51691997643772       -5.04580378080747        1.88859322136073
H           76.50205846437829       -7.52939012076903        1.92296291405815
H           74.11532503775430       -7.56726102979852       -1.63538143609907
H           74.13085527037704       -5.08347324241317       -1.67400519705482
H           77.92772852096934       -4.50860446834269       -0.34784897318171
H           79.83339557321960       -2.60201205994804       -0.30905002681994
H           79.83117184292213        2.56897670530174        0.51342202688291
H           77.94568468402115        4.49128476360148        0.37058420969562
H           76.62769281798511        4.94388358249366       -1.97477841524866
H           76.64930316119820        7.42411762830711       -2.11150410908407
H           74.15288426452669        7.64026750732055        1.36423793558637
H           74.13367474743427        5.16058785678762        1.50667536097680
H           72.78335874377218        4.46535938859072       -0.70836471556223
H           70.87478043431028        2.56724747827511       -0.56266244692936
