138
 energy: -215.594475435713 gnorm: 28.514595570652 xtb: 6.5.1 (b24c23e)
Cu          16.80005100000000        1.95906200000000        1.63105600000000
C           13.04896000000000        0.06557800000000       -0.02858400000000
C           13.69859200000000        0.91878000000000        0.76852400000000
C           13.03388500000000        1.83741900000000        1.68486400000000
C           13.96409100000000        2.55057700000000        2.29212900000000
C           15.27632200000000        2.12958800000000        1.78201400000000
N           15.11452400000000        1.08541100000000        0.82112300000000
C           16.46173500000000        2.65987700000000        2.14859300000000
C           16.49559700000000        3.77336000000000        3.12448500000000
C           16.00779600000000        5.04046600000000        2.77381500000000
C           16.05599500000000        6.09231900000000        3.69252300000000
C           16.59705100000000        5.89786800000000        4.97330400000000
N           16.63350700000000        7.00119000000000        5.89729900000000
C           17.17491900000000        6.90364400000000        7.24882000000000
C           17.09247200000000        4.62558900000000        5.31879200000000
C           17.04287100000000        3.57382000000000        4.39940800000000
C           17.76087300000000        2.18135700000000        1.60698100000000
C           19.03767600000000        2.87544000000000        1.81479700000000
C           19.98212900000000        2.16570400000000        1.23152700000000
N           17.91703200000000        1.09171900000000        0.91947400000000
C           19.31513899999999        1.01118500000000        0.64227800000000
C           19.92192100000000       -0.00018700000000        0.00005200000000
C           19.17130100000000       -1.13366300000000       -0.58444100000000
C           19.71303400000000       -2.30108900000000       -0.90783000000000
C           18.68096800000000       -3.09238200000000       -1.54924900000000
C           17.57800800000000       -2.35330800000000       -1.57954400000000
N           17.79767500000000       -1.08030300000000       -0.96986400000000
C           16.30745400000000       -2.76898400000000       -2.22716500000000
C           16.34600700000000       -3.87001100000000       -3.22037700000000
C           17.09172300000000       -3.72663500000000       -4.39904000000000
C           17.14875500000000       -4.76743500000000       -5.33038900000000
C           16.46286700000000       -5.97419800000000       -5.09317000000000
N           16.50160800000000       -7.06454600000000       -6.03235400000000
C           17.23833300000000       -7.01889900000000       -7.29107200000000
C           15.72529800000000       -6.11530200000000       -3.90719800000000
C           15.66959300000000       -5.07457700000000       -2.97635200000000
C           15.13869000000000       -2.16671400000000       -1.93478800000000
C           13.83831400000000       -2.46348400000000       -2.53333900000000
C           12.96601600000000       -1.68722900000000       -1.91977300000000
C           13.70076900000000       -0.88652500000000       -0.94185800000000
N           14.96765000000000       -1.15754300000000       -0.94175000000000
H           11.96536100000000        0.06855600000000       -0.01011500000000
H           11.96844500000000        1.92686300000000        1.85394800000000
H           13.76472600000000        3.30958300000000        3.03721100000000
H           15.59206700000000        5.21251300000000        1.78849800000000
H           15.67221200000000        7.06287900000000        3.40423500000000
H           16.25392700000000        7.92693200000000        5.59408500000000
H           18.24723300000000        6.61884400000000        7.20704500000000
H           16.60491700000000        6.14947400000000        7.83108000000000
H           17.08894700000000        7.88528000000000        7.76089200000000
H           17.51898400000000        4.43769300000000        6.29455200000000
H           17.42996900000000        2.60204600000000        4.68091500000000
H           19.19753200000000        3.80434300000000        2.34629700000000
H           21.03430400000000        2.41665400000000        1.21222100000000
H           20.73976200000000       -2.60384600000000       -0.75159500000000
H           18.80028700000000       -4.08994800000000       -1.95176000000000
H           17.62678500000000       -2.80590800000000       -4.59763900000000
H           17.73010900000000       -4.62241400000000       -6.23057000000000
H           15.97659100000000       -7.94107000000000       -5.81085600000000
H           16.84996200000000       -6.19579500000000       -7.92697700000000
H           17.11179800000000       -7.97780700000000       -7.83670100000000
H           18.31960100000000       -6.86540300000000       -7.09106900000000
H           15.19403700000000       -7.03615400000000       -3.70176900000000
H           15.10251500000000       -5.20799500000000       -2.06316800000000
H           13.60799900000000       -3.16911100000000       -3.32061500000000
H           11.90278800000000       -1.65549600000000       -2.11846200000000
Cu          31.84516700000000       -2.01939800000000       -1.55610400000000
C           35.59625799999999        0.01340900000000       -0.07037700000000
C           34.94662500000000       -0.95066000000000       -0.72909200000000
C           35.61133200000000       -2.04536700000000       -1.42565000000000
C           34.68112699999999       -2.79361000000000       -1.98912000000000
C           33.36889600000000       -2.20392700000000       -1.68958100000000
N           33.53069400000000       -1.03835100000000       -0.88023100000000
C           32.18348300000000       -2.67738200000000       -2.12710500000000
C           32.14962000000000       -3.87272000000000       -3.00081900000000
C           32.63742100000000       -3.80698200000000       -4.31390900000000
C           32.58922300000000       -4.93306700000000       -5.13995500000000
C           32.04816600000000       -6.14055800000000       -4.67072400000000
N           32.01171100000000       -7.28303100000000       -5.54584500000000
C           31.47029800000000       -8.58070300000000       -5.15574900000000
C           31.55274500000000       -6.20011000000000       -3.35371600000000
C           31.60234600000000       -5.07338400000000       -2.52790000000000
C           30.88434400000000       -2.04440800000000       -1.77829600000000
C           29.60754100000000       -2.39866500000000       -2.41030900000000
C           28.66308800000000       -1.67458500000000       -1.84494400000000
N           30.72818500000000       -1.13570900000000       -0.86492700000000
C           29.33007800000000       -0.84762000000000       -0.84681800000000
C           28.72329600000000       -0.00018700000000        0.00005200000000
C           29.47391600000000        0.81754500000000        0.97868000000000
C           28.93218300000000        1.38787400000000        2.04741200000000
C           29.96424900000000        2.18649700000000        2.67968100000000
C           31.06720899999999        2.05479600000000        1.95180500000000
N           30.84754200000000        1.18203800000000        0.84250700000000
C           32.33776300000000        2.77751300000000        2.21615500000000
C           32.29921100000000        3.98703600000000        3.07393400000000
C           31.55349400000000        5.10601300000000        2.67682800000000
C           31.49646200000000        6.24202300000000        3.48933000000000
C           32.18235000000000        6.27383500000000        4.71877600000000
N           32.14360900000000        7.42830100000000        5.57792200000000
C           31.40688400000000        8.64673000000000        5.25872400000000
C           32.91992000000000        5.14722900000000        5.11525900000000
C           32.97562400000000        4.01172600000000        4.30272000000000
C           33.50652700000000        2.36076600000000        1.69219300000000
C           34.80690300000000        3.00964900000000        1.85120900000000
C           35.67920200000000        2.24149000000000        1.22753800000000
C           34.94444800000000        1.11242500000000        0.65950900000000
N           33.67756800000000        1.17145500000000        0.92402000000000
H           36.67985700000000       -0.00526500000000       -0.06925400000000
H           36.67677200000000       -2.22989300000000       -1.47604600000000
H           34.88049100000000       -3.68635400000000       -2.56726100000000
H           33.05315000000000       -2.88294800000000       -4.69680700000000
H           32.97300600000000       -4.86350000000000       -6.15003400000000
H           32.39129000000000       -7.18912100000000       -6.51544300000000
H           30.39798499999999       -8.47779100000000       -4.88692700000000
H           32.04030000000000       -8.98437300000000       -4.29270300000000
H           31.55627000000000       -9.29462800000000       -6.00199800000000
H           31.12623300000000       -7.11135900000000       -2.95743800000000
H           31.21524800000000       -5.13606700000000       -1.51811700000000
H           29.44768500000000       -3.12004400000000       -3.20085600000000
H           27.61091400000000       -1.71050100000000       -2.09405900000000
H           27.90545500000000        1.30146500000000        2.37696400000000
H           29.84493100000000        2.79697700000000        3.56538200000000
H           31.01843200000000        5.09892500000000        1.73495300000000
H           30.91510900000000        7.08887000000000        3.15138400000000
H           32.66862600000000        7.40339800000000        6.48165600000000
H           31.79525500000000        9.08771200000000        4.31669800000000
H           31.53341900000000        9.38844400000000        6.07546900000000
H           30.32561600000000        8.41805300000000        5.15256600000000
H           33.45118000000000        5.14767900000000        6.05874600000000
H           33.54270300000000        3.14965900000000        4.63218000000000
H           35.03721900000000        3.93192200000000        2.36805000000000
H           36.74242900000000        2.42846700000000        1.15321600000000
C           24.92659799999999        0.00131300000000        0.00843200000000
C           23.71765800000000       -0.01214200000000       -0.00001500000000
C           22.29612900000000       -0.00332300000000       -0.01199800000000
C           21.08446000000000        0.00411600000000       -0.00113500000000
C           26.34320200000000       -0.00536200000000        0.00896500000000
C           27.56389800000000        0.00411600000000       -0.00113500000000
138
 energy: -227.430945629259 gnorm: 4.422449395094 xtb: 6.5.1 (b24c23e)
Cu          16.73061474332950        1.77424193033735        1.52372787771684
C           13.04900242487864        0.06468169558833       -0.02943966994032
C           13.69910735282212        0.91920583643814        0.76893741058611
C           13.03346349941988        1.83685903350639        1.68436549939652
C           13.96434104916521        2.55074365608972        2.29237746174320
C           15.26413090842706        2.12918159030403        1.78226428979784
N           15.11261173408798        1.08566134245257        0.82125598106530
C           16.38662803700530        2.81443487196693        2.26343849223809
C           16.49484724351431        3.77497768751792        3.12546832838726
C           16.00779653750579        5.04082294301177        2.77415761374564
C           16.05600449872205        6.09215936535879        3.69244148503259
C           16.59709222511660        5.89837863206752        4.97380130158148
N           16.63333622723899        7.00104958513603        5.89673508783652
C           17.17492497460728        6.90362554146375        7.24881788668436
C           17.09241360940237        4.62553911760461        5.31864641309429
C           17.04284458423252        3.57414620367357        4.39962672668452
C           17.91268815114478        2.21638017340687        1.60332555308444
C           19.03885062292393        2.87610395492178        1.81505089240537
C           19.98262490141810        2.16497521161369        1.23100634033209
N           17.92283524335241        1.08637691846239        0.91490826579769
C           19.31409149843209        1.01206884496739        0.64292321633334
C           19.91562784483635       -0.00135288850338       -0.00053192473765
C           19.16996071961784       -1.13249188616606       -0.58440693227555
C           19.71314931845905       -2.30267193453728       -0.90850657926414
C           18.68262959226997       -3.09277519156943       -1.54898186992523
C           17.57667411817810       -2.35219088235097       -1.57958542762356
N           17.79823092334577       -1.08085627554635       -0.96993505386014
C           16.30836268286660       -2.76884161727327       -2.22689324930453
C           16.34609794817032       -3.87001796124800       -3.22030120174034
C           17.09165306242782       -3.72691899798201       -4.39906675829799
C           17.14866457587021       -4.76742522889860       -5.33024347660044
C           16.46291817668189       -5.97460782278207       -5.09358857668523
N           16.50137388785093       -7.06445128458546       -6.03186639334213
C           17.23832765584890       -7.01888388445044       -7.29104900822233
C           15.72534191704849       -6.11515695065168       -3.90716232783408
C           15.66966874788135       -5.07462413202925       -2.97662124592566
C           15.13824097433141       -2.16629649385862       -1.93446982508963
C           13.83876273211154       -2.46374862905240       -2.53351520612359
C           12.96547022943548       -1.68683280235979       -1.91947029128230
C           13.69991157589436       -0.88605470538031       -0.94146061617348
N           14.96804322633861       -1.15809392819635       -0.94224404098727
H           11.96534804963197        0.06854101874376       -0.01015876460400
H           11.96846308695380        1.92677936023327        1.85386576352691
H           13.76490463154967        3.30960183408959        3.03720195021328
H           15.59206953091559        5.21249182850922        1.78849710665407
H           15.67221453745937        7.06289735581637        3.40424593940580
H           16.25413214593865        7.92638056066662        5.59420990551486
H           18.24704376859843        6.61887555486836        7.20709091617531
H           16.60504981650404        6.14959677896034        7.83100320766392
H           17.08894316048896        7.88507011991680        7.76072404050168
H           17.51898614058574        4.43771222501786        6.29456800253406
H           17.42996569419867        2.60202946034209        4.68090208258749
H           19.19738713206715        3.80439100027749        2.34635683438726
H           21.03428558928614        2.41655038349896        1.21214772976668
H           20.73974773707180       -2.60388909428487       -0.75159212006914
H           18.80032756382629       -4.08994596493890       -1.95172113783505
H           17.62677710284707       -2.80590936780444       -4.59762511129345
H           17.73011052294518       -4.62243606893890       -6.23059765805292
H           15.97687694850665       -7.94054499705772       -5.81093861582367
H           16.85006877910208       -6.19593025909680       -7.92689039660931
H           17.11179668316562       -7.97760411520967       -7.83653630057933
H           18.31942323577779       -6.86540913410993       -7.09114451492714
H           15.19403713313752       -7.03618327534726       -3.70178266146468
H           15.10252304967736       -5.20798213697455       -2.06316619797554
H           13.60812548972688       -3.16911584172566       -3.32059801880974
H           11.90277021064184       -1.65542384576589       -2.11839577483609
Cu          31.91460213476258       -1.87432811733659       -1.39915597854510
C           35.59621532227231        0.01443967092861       -0.06968897040629
C           34.94610986717534       -0.95115643347168       -0.72941713205568
C           35.61175357036288       -2.04475821648001       -1.42521224543872
C           34.68087679924233       -2.79388895464514       -1.98922833867658
C           33.38108763441047       -2.20408126247824       -1.68912919829129
N           33.53260605283767       -1.03853619522573       -0.88044699061526
C           32.25858950270015       -2.82318465490898       -2.25287941440395
C           32.15036982059139       -3.87403281145586       -3.00218328629962
C           32.63742042617635       -3.80739424295374       -4.31418250468695
C           32.58921349502226       -4.93295262925412       -5.13981701947922
C           32.04812477391034       -6.14115475043777       -4.67111383867858
N           32.01188177597800       -7.28245001707595       -5.54583098522365
C           31.47029202798789       -8.58069690629909       -5.15573144790934
C           31.55280339522574       -6.19995704683817       -3.35369911313180
C           31.60237246418251       -5.07366853631762       -2.52817063429036
C           30.73252849832661       -2.04848400125752       -1.81327394189824
C           29.60636871931836       -2.39905848287868       -2.41090192993454
C           28.66259161776747       -1.67391484300672       -1.84434337224170
N           30.72237755491282       -1.13008611325389       -0.86070883590934
C           29.33113314451593       -0.84845217312635       -0.84755168093240
C           28.72969382399551        0.00063211208471        0.00105690655469
C           29.47527441062597        0.81726543048394        0.97755216226242
C           28.93206805310102        1.38887795579137        2.04880765678606
C           29.96258872296938        2.18632289729661        2.68012318207533
C           31.06854322965744        2.05459412831144        1.95070773097988
N           30.84698375545161        1.18222715333117        0.84303051586877
C           32.33685307040719        2.77721640987388        2.21607552098910
C           32.29912005875194        3.98696352466740        3.07395733071428
C           31.55356394843859        5.10610107000155        2.67709932135433
C           31.49655243737628        6.24187883591018        3.48935221241263
C           32.18229882297970        6.27433291346925        4.71908462064340
N           32.14384311001691        7.42780448276377        5.57793595655890
C           31.40688934470715        8.64670425301433        5.25871423993928
C           32.91987606622293        5.14716252172807        5.11512519993477
C           32.97554826438117        4.01199905982224        4.30270727159886
C           33.50697665953645        2.36036384125031        1.69185440268888
C           34.80645419433375        3.00987870926699        1.85142878005332
C           35.67974783992000        2.24110805956107        1.22721737442704
C           34.94530582041278        1.11193445638158        0.65913667865342
N           33.67717445962090        1.17205779483875        0.92445014277682
H           36.67986995110726       -0.00521898896861       -0.06924898002618
H           36.67675391609863       -2.22979448770412       -1.47598233139005
H           34.88031236902464       -3.68634926613837       -2.56728134754391
H           33.05314747144737       -2.88294251051705       -4.69678653840810
H           32.97300345682480       -4.86351468421597       -6.15004951255753
H           32.39108485075031       -7.18912256669822       -6.51487758676876
H           30.39817422635765       -8.47784269118807       -4.88694777531252
H           32.04016718610138       -8.98432484836161       -4.29283957527729
H           31.55627384093568       -9.29441829079469       -6.00182982761581
H           31.12623085459132       -7.11137881635693       -2.95745326830616
H           31.21525130503539       -5.13605077732210       -1.51810368651851
H           29.44782985883568       -3.12011284987754       -3.20088973579975
H           27.61093217463419       -1.71040653114184       -2.09397349511215
H           27.90546917980268        1.30147153127980        2.37700659535068
H           29.84489038256556        2.79693862467887        3.56538849038463
H           31.01843989523848        5.09891173373119        1.73495736325701
H           30.91510747321302        7.08890180690870        3.15139950150204
H           32.66834005263507        7.40336406770028        6.48112562256203
H           31.79514821792948        9.08765699123745        4.31684890788735
H           31.53342031845182        9.38823900868289        6.07530695373140
H           30.32579376687845        8.41812803489225        5.15255551114780
H           33.45117987334430        5.14769871853045        6.05877159975929
H           33.54269495086150        3.14965442948642        4.63216784451582
H           35.03709250843836        3.93190648298466        2.36805842998562
H           36.74244680155989        2.42838662676599        1.15316002933760
C           24.92850428829443        0.00129970882320        0.00842716993094
C           23.71571690761043       -0.01212475167836       -0.00002915417718
C           22.29873740750911       -0.00334502881358       -0.01199673002728
C           21.09049185741189        0.00390478932138       -0.00132404330515
C           26.34094903742836       -0.00533377892865        0.00897123154661
C           27.55742021168090        0.00434840345291       -0.00096266533523
138
 energy: -228.368435318133 gnorm: 2.950382360906 xtb: 6.5.1 (b24c23e)
Cu          16.66046096607979        1.73098227914186        1.51314388526810
C           13.04987792343633        0.05667710677009       -0.03700518826892
C           13.70021239726090        0.91942807479128        0.77274319065999
C           13.02676367438544        1.83218166774525        1.68038567082278
C           13.95467410213325        2.55244827122008        2.29959365297143
C           15.19634099513849        2.13664462341356        1.78672539994469
N           15.08898862971038        1.09486922801483        0.82149313355571
C           16.39271240120310        2.79830819162090        2.25104053154591
C           16.49494697730328        3.79253272731566        3.13902896326746
C           16.00548727877144        5.05179667334646        2.77978087742964
C           16.05658558483636        6.09310763493415        3.69291025510227
C           16.59752187731415        5.90333908296742        4.97848823401050
N           16.63198167915797        6.99962108452178        5.89200596782068
C           17.17447929936985        6.90330183079609        7.24721772327832
C           17.09211179747166        4.62684565419397        5.31882303126113
C           17.04598069753708        3.58032467848548        4.40755516273119
C           17.97541244117253        2.25242915087479        1.62165005319930
C           19.05219183048354        2.89555145609850        1.82516273983175
C           19.99438870079555        2.15605299115797        1.22354073800309
N           17.97937277860106        1.06728329469105        0.89553613776736
C           19.31211091453242        1.02253217258786        0.64651203177538
C           19.87413657859713       -0.01280216321007       -0.00679804602775
C           19.15341231518973       -1.12591431051020       -0.58664874877796
C           19.71388730710054       -2.31762689006715       -0.91566403081501
C           18.69814680621209       -3.09602290150766       -1.54681785101080
C           17.56750176643436       -2.34056899507974       -1.57919203092043
N           17.80026075948916       -1.08683012661823       -0.97165023132871
C           16.31618077796067       -2.76562452694991       -2.22361643880301
C           16.34822969924877       -3.86989495431118       -3.21867707006166
C           17.09091287023133       -3.73035514164942       -4.39900453151784
C           17.14733432475054       -4.76841953588150       -5.32916970592657
C           16.46322846233855       -5.97886675348935       -5.09764640715684
N           16.49936938730404       -7.06265622229093       -6.02698983079040
C           17.23751901116198       -7.01841052270713       -7.28934145161444
C           15.72611289200821       -6.11397494294859       -3.90781369628473
C           15.67050588728154       -5.07464935099378       -2.97975553728203
C           15.13571341195289       -2.16321411646944       -1.93201724077580
C           13.84182609425022       -2.46514117975620       -2.53419056953669
C           12.95976696877675       -1.68311806933973       -1.91669400590591
C           13.69264528615167       -0.88296060033528       -0.93808891769532
N           14.96926536801067       -1.16316116278550       -0.94723863472873
H           11.96551942656321        0.06808378129561       -0.01162866683416
H           11.96712882529463        1.92484383862043        1.85174774699213
H           13.76700142534114        3.31111373025855        3.03832273508572
H           15.59238489052564        5.21250479817102        1.78926810360869
H           15.67238640219861        7.06352180874967        3.40451134398323
H           16.25685205710938        7.91864823568268        5.59541345546106
H           18.24424415619911        6.61931773820741        7.20787117497550
H           16.60718937812269        6.15143070270865        7.82990840375187
H           17.08886346449802        7.88195043526989        7.75799094346760
H           17.51886018448810        4.43810340026237        6.29495872558773
H           17.42952885495911        2.60250353707311        4.68080355848519
H           19.19819601289650        3.80945179448620        2.34948042190872
H           21.03724032118253        2.41322610412724        1.20947659927644
H           20.74008775853872       -2.60559901063561       -0.75170668474194
H           18.80208725489633       -4.09068964665846       -1.95104506331092
H           17.62630697210236       -2.80659562441024       -4.59736191262861
H           17.72984133503512       -4.62276333001544       -6.23064561667992
H           15.98052611251484       -7.93305067813175       -5.81146810486934
H           16.85169619281103       -6.19793143810405       -7.92553806157155
H           17.11156652544198       -7.97446443992733       -7.83374240163714
H           18.31664859615426       -6.86541968991747       -7.09230938100578
H           15.19415866433018       -7.03623070782565       -3.70195050579371
H           15.10297650477891       -5.20772249544136       -2.06372625858487
H           13.61064588062512       -3.16941156123460       -3.32047142141595
H           11.90131195156923       -1.65391765865921       -2.11725533260525
Cu          31.98474343855239       -1.85456303081130       -1.35924997327585
C           35.59533932833062        0.02357221389485       -0.06352629045865
C           34.94500482402847       -0.95492051316689       -0.72880508891061
C           35.61845418349790       -2.03985309626658       -1.42151518825968
C           34.69054290569150       -2.80130259386702       -1.98931589540185
C           33.44887329416318       -2.21005970252004       -1.69543053660960
N           33.55623315565723       -1.04077269303904       -0.88938081032105
C           32.25249547407463       -2.80756279757660       -2.23984192561797
C           32.15027072575712       -3.89109735676574       -3.01635772623204
C           32.63972993328257       -3.81527586850710       -4.32366371454319
C           32.58863183739236       -4.93361724364915       -5.14064023393212
C           32.04769504270708       -6.14681085940994       -4.67493197260424
N           32.01323647514223       -7.27752335497563       -5.54546901987519
C           31.47073766527963       -8.57906471979098       -5.15576465174237
C           31.55310599171628       -6.20041444762658       -3.35493609125508
C           31.59923698291826       -5.08275195524221       -2.53246979154143
C           30.66978828229417       -2.07424430164638       -1.84447561206220
C           29.59304944029417       -2.41317847842538       -2.42767415406726
C           28.65082636502737       -1.66466733586936       -1.83725340220387
N           30.66580592656456       -1.10700424310459       -0.84629775231798
C           29.33308148392263       -0.85429390071828       -0.85706703328170
C           28.77092277765011        0.00923811965790        0.01077741340311
C           29.49194094949217        0.81808251003831        0.97068912928088
C           28.93135341448128        1.39911115449876        2.06183227393973
C           29.94709102802693        2.18493313816664        2.68377069347568
C           31.07772405705153        2.05169312639021        1.93947594286175
N           30.84495741305302        1.18520966927768        0.84847844296440
C           32.32902718450341        2.77331439735756        2.21365443146666
C           32.29698826674587        3.98535156700695        3.07419191997485
C           31.55430436593826        5.10679002096839        2.68046627272248
C           31.49788282915447        6.24104788149559        3.49055688883338
C           32.18198850680132        6.27922203860275        4.72235537265570
N           32.14584762387319        7.42265395425420        5.57724830341024
C           31.40769803843830        8.64493435170426        5.25862459216130
C           32.91910493910984        5.14754024757476        5.11382937085921
C           32.97471129804396        4.01506353895839        4.30204834189511
C           33.50950810079132        2.35729407682370        1.68937711305392
C           34.80338980661445        3.01084134903909        1.85263935300396
C           35.68545213934357        2.23758647591022        1.22419750925663