      -----------------------------------------------------------      
     |                   =====================                   |     
     |                           x T B                           |     
     |                   =====================                   |     
     |                         S. Grimme                         |     
     |          Mulliken Center for Theoretical Chemistry        |     
     |                    University of Bonn                     |     
      -----------------------------------------------------------      

   * xtb version 6.5.1 (b24c23e) compiled by 'conda@728c89f4b128' on 2022-07-12

   xtb is free software: you can redistribute it and/or modify it under
   the terms of the GNU Lesser General Public License as published by
   the Free Software Foundation, either version 3 of the License, or
   (at your option) any later version.
   
   xtb is distributed in the hope that it will be useful,
   but WITHOUT ANY WARRANTY; without even the implied warranty of
   MERCHANTABILITY or FITNESS FOR A PARTICULAR PURPOSE.  See the
   GNU Lesser General Public License for more details.
   
   Cite this work as:
   * C. Bannwarth, E. Caldeweyher, S. Ehlert, A. Hansen, P. Pracht,
     J. Seibert, S. Spicher, S. Grimme, WIREs Comput. Mol. Sci., 2020, 11,
     e01493. DOI: 10.1002/wcms.1493
   
   for GFN2-xTB:
   * C. Bannwarth, S. Ehlert and S. Grimme., J. Chem. Theory Comput., 2019,
     15, 1652-1671. DOI: 10.1021/acs.jctc.8b01176
   for GFN1-xTB:
   * S. Grimme, C. Bannwarth, P. Shushkov, J. Chem. Theory Comput., 2017,
     13, 1989-2009. DOI: 10.1021/acs.jctc.7b00118
   for GFN0-xTB:
   * P. Pracht, E. Caldeweyher, S. Ehlert, S. Grimme, ChemRxiv, 2019, preprint.
     DOI: 10.26434/chemrxiv.8326202.v1
   for GFN-FF:
   * S. Spicher and S. Grimme, Angew. Chem. Int. Ed., 2020, 59, 15665-15673.
     DOI: 10.1002/anie.202004239
   
   for ALPB and GBSA implicit solvation:
   * S. Ehlert, M. Stahn, S. Spicher, S. Grimme, J. Chem. Theory Comput.,
     2021, 17, 4250-4261. DOI: 10.1021/acs.jctc.1c00471
   
   for DFT-D4:
   * E. Caldeweyher, C. Bannwarth and S. Grimme, J. Chem. Phys., 2017,
     147, 034112. DOI: 10.1063/1.4993215
   * E. Caldeweyher, S. Ehlert, A. Hansen, H. Neugebauer, S. Spicher,
     C. Bannwarth and S. Grimme, J. Chem. Phys., 2019, 150, 154122.
     DOI: 10.1063/1.5090222
   * E. Caldeweyher, J.-M. Mewes, S. Ehlert and S. Grimme, Phys. Chem. Chem. Phys.
     2020, 22, 8499-8512. DOI: 10.1039/D0CP00502A
   
   for sTDA-xTB:
   * S. Grimme and C. Bannwarth, J. Chem. Phys., 2016, 145, 054103.
     DOI: 10.1063/1.4959605
   
   in the mass-spec context:
   * V. Asgeirsson, C. Bauer and S. Grimme, Chem. Sci., 2017, 8, 4879.
     DOI: 10.1039/c7sc00601b
   * J. Koopman and S. Grimme, ACS Omega 2019, 4, 12, 15120-15133.
     DOI: 10.1021/acsomega.9b02011
   
   for metadynamics refer to:
   * S. Grimme, J. Chem. Theory Comput., 2019, 155, 2847-2862
     DOI: 10.1021/acs.jctc.9b00143
   
   for SPH calculations refer to:
   * S. Spicher and S. Grimme, J. Chem. Theory Comput., 2021, 17, 1701-1714
     DOI: 10.1021/acs.jctc.0c01306
   
   with help from (in alphabetical order)
   P. Atkinson, C. Bannwarth, F. Bohle, G. Brandenburg, E. Caldeweyher
   M. Checinski, S. Dohm, S. Ehlert, S. Ehrlich, I. Gerasimov, C. Hölzer
   A. Katbashev, J. Koopman, C. Lavigne, S. Lehtola, F. März, M. Müller,
   F. Musil, H. Neugebauer, J. Pisarek, C. Plett, P. Pracht, F. Pultar,
   J. Seibert, P. Shushkov, S. Spicher, M. Stahn, M. Steiner, T. Strunk,
   J. Stückrath, T. Rose, and J. Unsleber
   
 * started run on 2022/07/30 at 08:25:43.712     

           -------------------------------------------------
          |                Calculation Setup                |
           -------------------------------------------------

          program call               : xtb xtbopt.xyz --gfn 1 --vipea
          hostname                   : cx3-15-13.cx3.hpc.ic.ac.uk
          coordinate file            : xtbopt.xyz
          omp threads                :                     1

   ID    Z sym.   atoms
    1   27 Co     1, 59, 123, 180
    2    6 C      2-6, 8-13, 15-19, 21-26, 28-33, 35-40, 60-64, 66-71, 73-77,
                  79-84, 86-91, 93-98, 117-122, 124-128, 130-135, 137-141,
                  143-148, 150-155, 157-162, 181-185, 187-192, 194-198,
                  200-205, 207-212, 214-219
    3    7 N      7, 14, 20, 27, 34, 41, 65, 72, 78, 85, 92, 99, 129, 136,
                  142, 149, 156, 163, 186, 193, 199, 206, 213, 220
    4    1 H      42-58, 100-116, 164-179, 221-236

           -------------------------------------------------
          |                 I P E A - x T B                 |
           -------------------------------------------------

        Reference                      10.1039/c7sc00601b
      * Hamiltonian:
        H0-scaling (s, p, d)           2.150000    2.300000    2.000000
        zeta-weighting                 0.000000
      * Dispersion:
        s8                             2.400000
        a1                             0.630000
        a2                             5.000000
        s9                             0.000000
      * Repulsion:
        kExp                           1.500000
        rExp                           1.000000
      * Coulomb:
        alpha                          1.000000
        third order                    atomic
        anisotropic                    false
      * Halogen bond correction:
        rad-scale                      1.300000
        damping                        0.440000


          ...................................................
          :                      SETUP                      :
          :.................................................:
          :  # basis functions                1002          :
          :  # atomic orbitals                 998          :
          :  # shells                          642          :
          :  # electrons                       790          :
          :  # halogen bonds                     0          :
          :  max. iterations                   250          :
          :  Hamiltonian                  GFN1-xTB          :
          :  restarted?                      false          :
          :  GBSA solvation                  false          :
          :  PC potential                    false          :
          :  electronic temp.          300.0000000     K    :
          :  accuracy                    1.0000000          :
          :  -> integral cutoff          0.2500000E+02      :
          :  -> integral neglect         0.1000000E-07      :
          :  -> SCF convergence          0.1000000E-05 Eh   :
          :  -> wf. convergence          0.2000000E-04 e    :
          :  Broyden damping             0.4000000          :
          ...................................................

 iter      E             dE          RMSdq      gap      omega  full diag
   1   -490.6731546 -0.490673E+03  0.107E+01    0.18       0.0  T
   2   -472.8025418  0.178706E+02  0.958E+00    0.00       1.0  T
   3   -473.4069573 -0.604415E+00  0.740E+00    0.02       1.0  T
   4   -389.0671088  0.843398E+02  0.693E+00    0.01       1.0  T
   5    217.1767199  0.606244E+03  0.120E+01    0.02       1.0  T
   6   -438.2590486 -0.655436E+03  0.723E+00    0.03       1.0  T
   7   -490.4382092 -0.521792E+02  0.342E+00    0.01       1.0  T
   8   -491.0141171 -0.575908E+00  0.319E+00    0.00       1.0  T
   9   -491.4088909 -0.394774E+00  0.283E+00    0.01       1.0  T
  10   -491.7027947 -0.293904E+00  0.233E+00    0.05       1.0  T
  11   -491.7402979 -0.375033E-01  0.239E+00    0.01       1.0  T
  12   -487.1364820  0.460382E+01  0.358E+00    0.02       1.0  T
  13   -492.5702989 -0.543382E+01  0.154E+00    0.05       1.0  T
  14   -491.7042230  0.866076E+00  0.211E+00    0.01       1.0  T
  15   -491.7934093 -0.891864E-01  0.205E+00    0.00       1.0  T
  16   -492.9137849 -0.112038E+01  0.146E+00    0.07       1.0  T
  17   -493.1103641 -0.196579E+00  0.106E+00    0.04       1.0  T
  18   -493.2514003 -0.141036E+00  0.106E+00    0.11       1.0  T
  19   -493.3109600 -0.595596E-01  0.962E-01    0.09       1.0  T
  20   -493.5492656 -0.238306E+00  0.545E-01    0.02       1.0  T
  21   -492.7876830  0.761583E+00  0.138E+00    0.00       1.0  T
  22   -493.2191983 -0.431515E+00  0.921E-01    0.11       1.0  T
  23   -493.4082806 -0.189082E+00  0.796E-01    0.03       1.0  T
  24   -493.3820721  0.262085E-01  0.830E-01    0.03       1.0  T
  25   -493.5044997 -0.122428E+00  0.638E-01    0.03       1.0  T
  26   -493.5364229 -0.319232E-01  0.538E-01    0.03       1.0  T
  27   -493.5738117 -0.373888E-01  0.414E-01    0.03       1.0  T
  28   -493.4552909  0.118521E+00  0.698E-01    0.02       1.0  T
  29   -493.6269858 -0.171695E+00  0.194E-01    0.01       1.0  T
  30   -493.6166625  0.103233E-01  0.253E-01    0.00       1.0  T
  31   -493.6196720 -0.300948E-02  0.234E-01    0.01       1.0  T
  32   -493.6261043 -0.643236E-02  0.155E-01    0.01       1.0  T
  33   -493.6363403 -0.102360E-01  0.542E-02    0.01       1.0  T
  34   -493.6329165  0.342383E-02  0.101E-01    0.01       1.0  T
  35   -493.6367068 -0.379038E-02  0.459E-02    0.01       1.0  T
  36   -493.6359082  0.798669E-03  0.615E-02    0.01       1.0  T
  37   -493.6370982 -0.119002E-02  0.341E-02    0.01       1.0  T
  38   -493.6373819 -0.283658E-03  0.190E-02    0.01       1.0  T
  39   -493.6373221  0.597382E-04  0.227E-02    0.01       1.0  T
  40   -493.6374342 -0.112100E-03  0.148E-02    0.01       1.0  T
  41   -493.6374607 -0.265111E-04  0.116E-02    0.01       1.0  T
  42   -493.6374918 -0.310613E-04  0.676E-03    0.01       1.0  T
  43   -493.6375000 -0.822993E-05  0.450E-03    0.01       1.4  T
  44   -493.6375041 -0.408565E-05  0.280E-03    0.01       2.3  T
  45   -493.6375058 -0.170507E-05  0.181E-03    0.01       3.6  T
  46   -493.6375065 -0.659014E-06  0.123E-03    0.01       5.3  T
  47   -493.6375068 -0.294062E-06  0.808E-04    0.01       8.1  T
  48   -493.6375068 -0.526928E-07  0.706E-04    0.01       9.2  T
  49   -493.6375070 -0.171616E-06  0.192E-04    0.01      33.9  T
  50   -493.6375070 -0.558754E-08  0.157E-04    0.01      41.3  T

   *** convergence criteria satisfied after 50 iterations ***

         #    Occupation            Energy/Eh            Energy/eV
      -------------------------------------------------------------
         1        2.0000           -1.0384318             -28.2572
       ...           ...                  ...                  ...
       389        1.9998           -0.3738098             -10.1719
       390        1.9998           -0.3737910             -10.1714
       391        1.9998           -0.3737709             -10.1708
       392        1.9998           -0.3737344             -10.1698
       393        1.9998           -0.3736205             -10.1667
       394        1.1772           -0.3652472              -9.9389
       395        1.0530           -0.3650076              -9.9324 (HOMO)
       396        0.9267           -0.3647674              -9.9258 (LUMO)
       397        0.8447           -0.3646094              -9.9215
       398                         -0.3303271              -8.9887
       399                         -0.3198424              -8.7034
       400                         -0.3140752              -8.5464
       ...                                ...                  ...
       998                        555.6156658           15119.0718
      -------------------------------------------------------------
                  HL-Gap            0.0002402 Eh            0.0065 eV
             Fermi-level           -0.3649069 Eh           -9.9296 eV

 SCC (total)                   0 d,  0 h,  0 min, 22.906 sec
 SCC setup                      ...        0 min,  0.009 sec (  0.038%)
 Dispersion                     ...        0 min,  0.011 sec (  0.050%)
 classical contributions        ...        0 min,  0.004 sec (  0.017%)
 integral evaluation            ...        0 min,  0.820 sec (  3.579%)
 iterations                     ...        0 min, 20.209 sec ( 88.222%)
 molecular gradient             ...        0 min,  1.774 sec (  7.743%)
 printout                       ...        0 min,  0.080 sec (  0.351%)

         :::::::::::::::::::::::::::::::::::::::::::::::::::::
         ::                     SUMMARY                     ::
         :::::::::::::::::::::::::::::::::::::::::::::::::::::
         :: total energy            -483.695089414445 Eh    ::
         :: gradient norm              0.109294329241 Eh/a0 ::
         :: HOMO-LUMO gap              0.006535542759 eV    ::
         ::.................................................::
         :: SCC energy              -493.637506995002 Eh    ::
         :: -> electrostatic           0.374346036139 Eh    ::
         :: repulsion energy          10.169738187097 Eh    ::
         :: dispersion energy         -0.227320606540 Eh    ::
         :: halogen bond corr.         0.000000000000 Eh    ::
         :: add. restraining           0.000000000000 Eh    ::
         :: total charge              -0.000000000001 e     ::
         :::::::::::::::::::::::::::::::::::::::::::::::::::::

           ------------------------------------------------- 
          |        vertical delta SCC IP calculation        |
           ------------------------------------------------- 
   1   -493.2235986 -0.493224E+03  0.288E-01    0.01       0.0  T
   2   -493.0683716  0.155227E+00  0.715E-01    0.03       1.0  T
   3   -492.1527485  0.915623E+00  0.170E+00    0.11       1.0  T
   4   -492.5494307 -0.396682E+00  0.137E+00    0.08       1.0  T
   5   -493.1802015 -0.630771E+00  0.406E-01    0.03       1.0  T
   6   -492.9366623  0.243539E+00  0.833E-01    0.09       1.0  T
   7   -493.1887011 -0.252039E+00  0.371E-01    0.01       1.0  T
   8   -493.1738556  0.148456E-01  0.414E-01    0.04       1.0  T
   9   -493.1756551 -0.179951E-02  0.412E-01    0.02       1.0  T
  10   -493.2350048 -0.593498E-01  0.128E-01    0.01       1.0  T
  11   -493.2398373 -0.483244E-02  0.625E-02    0.00       1.0  T
  12   -493.2408394 -0.100215E-02  0.383E-02    0.01       1.0  T
  13   -493.2413558 -0.516396E-03  0.133E-02    0.01       1.0  T
  14   -493.2413574 -0.153964E-05  0.133E-02    0.01       1.0  T
  15   -493.2414128 -0.554235E-04  0.589E-03    0.01       1.1  T
  16   -493.2414149 -0.216344E-05  0.563E-03    0.01       1.2  T
  17   -493.2414266 -0.116618E-04  0.139E-03    0.01       4.7  T
  18   -493.2414268 -0.180050E-06  0.119E-03    0.01       5.5  T
  19   -493.2414273 -0.509709E-06  0.501E-04    0.01      13.0  T
  20   -493.2414274 -0.933335E-07  0.949E-05    0.01      68.6  T
  21   -493.2414274  0.944078E-08  0.174E-04    0.01      37.5  T
     SCC iter.                  ...        0 min,  8.226 sec
     gradient                   ...        0 min,  1.810 sec
------------------------------------------------------------------------
empirical IP shift (eV):    4.8455
delta SCC IP (eV):    5.9324
------------------------------------------------------------------------
           ------------------------------------------------- 
          |        vertical delta SCC EA calculation        |
           ------------------------------------------------- 
   1   -493.9064963 -0.493906E+03  0.565E-01    0.00       0.0  T
   2   -493.6894763  0.217020E+00  0.872E-01    0.05       1.0  T
   3   -493.2031478  0.486328E+00  0.148E+00    0.00       1.0  T
   4   -493.4822882 -0.279140E+00  0.120E+00    0.17       1.0  T
   5   -493.7446470 -0.262359E+00  0.801E-01    0.03       1.0  T
   6   -493.6777117  0.669353E-01  0.862E-01    0.08       1.0  T
   7   -493.6957480 -0.180363E-01  0.872E-01    0.01       1.0  T
   8   -493.8058246 -0.110077E+00  0.670E-01    0.02       1.0  T
   9   -493.9582880 -0.152463E+00  0.191E-01    0.01       1.0  T
  10   -493.9510880  0.720007E-02  0.237E-01    0.00       1.0  T
  11   -493.9101773  0.409107E-01  0.406E-01    0.03       1.0  T
  12   -493.9398166 -0.296393E-01  0.300E-01    0.00       1.0  T
  13   -493.9577134 -0.178968E-01  0.197E-01    0.02       1.0  T
  14   -493.9716173 -0.139039E-01  0.256E-02    0.01       1.0  T
  15   -493.9717488 -0.131523E-03  0.167E-02    0.00       1.0  T
  16   -493.9716600  0.888326E-04  0.230E-02    0.01       1.0  T
  17   -493.9718473 -0.187341E-03  0.391E-03    0.01       1.7  T
  18   -493.9718461  0.121753E-05  0.438E-03    0.01       1.5  T
  19   -493.9718477 -0.159303E-05  0.379E-03    0.01       1.7  T
  20   -493.9718514 -0.374647E-05  0.208E-03    0.01       3.1  T
  21   -493.9718529 -0.148612E-05  0.402E-04    0.01      16.2  T
  22   -493.9718530 -0.540247E-07  0.113E-04    0.01      57.4  T
  23   -493.9718530 -0.819682E-09  0.105E-04    0.01      61.8  T
     SCC iter.                  ...        0 min,  9.646 sec
     gradient                   ...        0 min,  1.727 sec
------------------------------------------------------------------------
empirical EA shift (eV):    4.8455
delta SCC EA (eV):    4.2525
------------------------------------------------------------------------
           -------------------------------------------------
          |                Property Printout                |
           -------------------------------------------------

    * Orbital Energies and Occupations

         #    Occupation            Energy/Eh            Energy/eV
      -------------------------------------------------------------
         1        2.0000           -0.9875827             -26.8735
       ...           ...                  ...                  ...
       384        2.0000           -0.3151347              -8.5753
       385        2.0000           -0.3150936              -8.5741
       386        1.9999           -0.3148372              -8.5672
       387        1.9999           -0.3147992              -8.5661
       388        1.9999           -0.3147919              -8.5659
       389        1.9999           -0.3146039              -8.5608
       390        1.9999           -0.3145191              -8.5585
       391        1.9999           -0.3144785              -8.5574
       392        1.9999           -0.3143853              -8.5549
       393        1.9999           -0.3142717              -8.5518
       394        1.4093           -0.3055626              -8.3148
       395        1.3103           -0.3053317              -8.3085
       396        1.1890           -0.3050672              -8.3013 (HOMO)
       397        1.0921           -0.3048645              -8.2958 (LUMO)
       398                         -0.2796264              -7.6090
       399                         -0.2701733              -7.3518
       400                         -0.2656692              -7.2292
       401                         -0.2656531              -7.2288
       402                         -0.2645032              -7.1975
       403                         -0.2643332              -7.1929
       404                         -0.2619748              -7.1287
       405                         -0.2520305              -6.8581
       406                         -0.2384957              -6.4898
       407                         -0.2366058              -6.4384
       ...                                ...                  ...
       998                        555.6647886           15120.4085
      -------------------------------------------------------------
                  HL-Gap            0.0002027 Eh            0.0055 eV
             Fermi-level           -0.3046751 Eh           -8.2906 eV

  Mulliken/CM5 charges         n(s)   n(p)   n(d)
     1Co    0.31703  0.72735   0.326  0.985  7.372
     2C    -0.02049 -0.06168   1.086  2.935  0.000
     3C     0.05533  0.11573   1.111  2.834  0.000
     4C    -0.03915 -0.08563   1.084  2.955  0.000
     5C    -0.03800 -0.08420   1.077  2.961  0.000
     6C     0.05752  0.12154   1.106  2.836  0.000
     7N    -0.21509 -0.47694   1.318  3.897  0.000
     8C     0.00731  0.01278   1.082  2.911  0.000
     9C     0.01601  0.00734   1.089  2.895  0.000
    10C    -0.01697 -0.07022   1.077  2.940  0.000
    11C    -0.01248 -0.06455   1.092  2.921  0.000
    12C     0.01536  0.01162   1.076  2.908  0.000
    13C     0.11212  0.22968   1.210  2.678  0.000
    14N    -0.26872 -0.39333   1.544  3.725  0.000
    15C    -0.01168 -0.06375   1.091  2.920  0.000
    16C    -0.01623 -0.06946   1.077  2.939  0.000
    17C     0.05682  0.12007   1.104  2.839  0.000
    18C    -0.03620 -0.08238   1.074  2.962  0.000
    19C    -0.03492 -0.08073   1.078  2.957  0.000
    20N    -0.21338 -0.47467   1.318  3.895  0.000
    21C     0.06067  0.12575   1.116  2.824  0.000
    22C     0.01829  0.02532   1.080  2.901  0.000
    23C     0.06073  0.12590   1.116  2.824  0.000
    24C    -0.03497 -0.08076   1.078  2.957  0.000
    25C    -0.03618 -0.08239   1.074  2.962  0.000
    26C     0.05674  0.11989   1.104  2.839  0.000
    27N    -0.21347 -0.47461   1.318  3.895  0.000
    28C     0.00731  0.01278   1.082  2.911  0.000
    29C     0.01601  0.00735   1.089  2.895  0.000
    30C    -0.01705 -0.07027   1.077  2.940  0.000
    31C    -0.01250 -0.06457   1.092  2.921  0.000
    32C     0.01534  0.01160   1.076  2.908  0.000
    33C     0.11211  0.22968   1.210  2.678  0.000
    34N    -0.26876 -0.39339   1.544  3.725  0.000
    35C    -0.01168 -0.06375   1.091  2.920  0.000
    36C    -0.01615 -0.06941   1.077  2.940  0.000
    37C     0.05759  0.12171   1.106  2.837  0.000
    38C    -0.03803 -0.08420   1.077  2.961  0.000
    39C    -0.03913 -0.08561   1.085  2.954  0.000
    40C     0.05530  0.11564   1.111  2.834  0.000
    41N    -0.21503 -0.47693   1.318  3.898  0.000
    42H     0.02692  0.08580   0.973  0.000  0.000
    43H     0.02894  0.08556   0.971  0.000  0.000
    44H     0.02074  0.07948   0.979  0.000  0.000
    45H     0.02812  0.08625   0.972  0.000  0.000
    46H     0.04001  0.09727   0.960  0.000  0.000
    47H     0.04171  0.09897   0.958  0.000  0.000
    48H     0.02936  0.08744   0.971  0.000  0.000
    49H     0.02229  0.08108   0.978  0.000  0.000
    50H     0.02064  0.07895   0.979  0.000  0.000
    51H     0.02095  0.07919   0.979  0.000  0.000
    52H     0.02225  0.08103   0.978  0.000  0.000
    53H     0.02805  0.08615   0.972  0.000  0.000
    54H     0.03995  0.09721   0.960  0.000  0.000
    55H     0.04176  0.09902   0.958  0.000  0.000
    56H     0.02945  0.08754   0.971  0.000  0.000
    57H     0.02082  0.07955   0.979  0.000  0.000
    58H     0.02890  0.08552   0.971  0.000  0.000
    59Co    0.31300  0.71111   0.326  0.982  7.379
    60C    -0.02023 -0.06156   1.085  2.935  0.000
    61C     0.05585  0.11631   1.110  2.834  0.000
    62C    -0.03900 -0.08553   1.085  2.954  0.000
    63C    -0.03799 -0.08416   1.077  2.961  0.000
    64C     0.05795  0.12188   1.106  2.836  0.000
    65N    -0.21552 -0.47411   1.318  3.898  0.000
    66C     0.00745  0.01279   1.081  2.911  0.000
    67C     0.01628  0.00747   1.090  2.894  0.000
    68C    -0.01690 -0.07015   1.077  2.940  0.000
    69C    -0.01237 -0.06444   1.092  2.921  0.000
    70C     0.01529  0.01154   1.076  2.909  0.000
    71C     0.11208  0.22962   1.210  2.678  0.000
    72N    -0.26891 -0.39350   1.544  3.725  0.000
    73C    -0.01168 -0.06375   1.092  2.920  0.000
    74C    -0.01635 -0.06962   1.077  2.940  0.000
    75C     0.05760  0.12105   1.104  2.838  0.000
    76C    -0.03661 -0.08273   1.076  2.961  0.000
    77C    -0.03539 -0.08106   1.081  2.954  0.000
    78N    -0.21409 -0.47186   1.318  3.896  0.000
    79C     0.06080  0.12563   1.115  2.824  0.000
    80C     0.01909  0.02596   1.079  2.902  0.000
    81C     0.06093  0.12592   1.115  2.824  0.000
    82C    -0.03545 -0.08111   1.081  2.954  0.000
    83C    -0.03657 -0.08275   1.076  2.961  0.000
    84C     0.05749  0.12075   1.104  2.838  0.000
    85N    -0.21418 -0.47189   1.318  3.896  0.000
    86C     0.00746  0.01281   1.081  2.911  0.000
    87C     0.01630  0.00749   1.090  2.894  0.000
    88C    -0.01711 -0.07029   1.077  2.940  0.000
    89C    -0.01242 -0.06448   1.092  2.920  0.000
    90C     0.01526  0.01152   1.076  2.909  0.000
    91C     0.11208  0.22963   1.210  2.678  0.000
    92N    -0.26897 -0.39358   1.544  3.725  0.000
    93C    -0.01163 -0.06371   1.091  2.920  0.000
    94C    -0.01615 -0.06947   1.076  2.940  0.000
    95C     0.05811  0.12223   1.105  2.837  0.000
    96C    -0.03805 -0.08415   1.077  2.961  0.000
    97C    -0.03895 -0.08548   1.085  2.954  0.000
    98C     0.05577  0.11608   1.111  2.833  0.000
    99N    -0.21540 -0.47419   1.318  3.898  0.000
   100H     0.02674  0.08571   0.973  0.000  0.000
   101H     0.02917  0.08581   0.971  0.000  0.000
   102H     0.02119  0.08002   0.979  0.000  0.000
   103H     0.02822  0.08625   0.972  0.000  0.000
   104H     0.04002  0.09728   0.960  0.000  0.000
   105H     0.04164  0.09890   0.958  0.000  0.000
   106H     0.02971  0.08761   0.970  0.000  0.000
   107H     0.02227  0.08122   0.978  0.000  0.000
   108H     0.02128  0.07951   0.979  0.000  0.000
   109H     0.02159  0.07980   0.978  0.000  0.000
   110H     0.02219  0.08114   0.978  0.000  0.000
   111H     0.02812  0.08606   0.972  0.000  0.000
   112H     0.03995  0.09721   0.960  0.000  0.000
   113H     0.04168  0.09894   0.958  0.000  0.000
   114H     0.02986  0.08782   0.970  0.000  0.000
   115H     0.02138  0.08019   0.979  0.000  0.000
   116H     0.02910  0.08574   0.971  0.000  0.000
   117C    -0.02413 -0.02625   1.073  2.951  0.000
   118C    -0.02377 -0.02588   1.073  2.951  0.000
   119C    -0.02327 -0.02545   1.073  2.951  0.000
   120C    -0.02325 -0.02550   1.073  2.950  0.000
   121C    -0.02136 -0.02374   1.073  2.948  0.000
   122C    -0.02184 -0.02424   1.073  2.949  0.000
   123Co    0.32339  0.73096   0.324  0.983  7.370
   124C     0.01829  0.02535   1.081  2.901  0.000
   125C     0.06071  0.12588   1.116  2.823  0.000
   126C    -0.03530 -0.08109   1.078  2.957  0.000
   127C    -0.03596 -0.08217   1.075  2.961  0.000
   128C     0.05692  0.12026   1.104  2.839  0.000
   129N    -0.21300 -0.47361   1.317  3.896  0.000
   130C     0.00950  0.01494   1.083  2.907  0.000
   131C     0.01609  0.00743   1.089  2.895  0.000
   132C    -0.01631 -0.06953   1.077  2.940  0.000
   133C    -0.01181 -0.06388   1.092  2.920  0.000
   134C     0.01586  0.01213   1.077  2.908  0.000
   135C     0.11243  0.23002   1.210  2.678  0.000
   136N    -0.26784 -0.39248   1.544  3.724  0.000
   137C    -0.01161 -0.06368   1.091  2.920  0.000
   138C    -0.01612 -0.06938   1.077  2.939  0.000
   139C     0.05679  0.12006   1.104  2.839  0.000
   140C    -0.03593 -0.08215   1.075  2.960  0.000
   141C    -0.03524 -0.08100   1.078  2.957  0.000
   142N    -0.21296 -0.47432   1.318  3.895  0.000
   143C     0.06088  0.12616   1.115  2.824  0.000
   144C     0.01850  0.02554   1.080  2.901  0.000
   145C     0.06107  0.12633   1.116  2.823  0.000
   146C    -0.03508 -0.08084   1.079  2.957  0.000
   147C    -0.03575 -0.08198   1.076  2.960  0.000
   148C     0.05694  0.12018   1.104  2.839  0.000
   149N    -0.21294 -0.47348   1.317  3.896  0.000
   150C     0.00956  0.01501   1.083  2.907  0.000
   151C     0.01609  0.00743   1.089  2.895  0.000
   152C    -0.01624 -0.06947   1.077  2.939  0.000
   153C    -0.01177 -0.06384   1.092  2.920  0.000
   154C     0.01589  0.01215   1.077  2.908  0.000
   155C     0.11244  0.23002   1.210  2.678  0.000
   156N    -0.26780 -0.39243   1.544  3.724  0.000
   157C    -0.01163 -0.06370   1.091  2.920  0.000
   158C    -0.01616 -0.06942   1.076  2.940  0.000
   159C     0.05674  0.12009   1.104  2.839  0.000
   160C    -0.03604 -0.08225   1.075  2.961  0.000
   161C    -0.03538 -0.08120   1.078  2.958  0.000
   162C     0.06063  0.12583   1.115  2.824  0.000
   163N    -0.21295 -0.47443   1.318  3.895  0.000
   164H     0.02023  0.07849   0.980  0.000  0.000
   165H     0.02193  0.08069   0.978  0.000  0.000
   166H     0.02904  0.08717   0.971  0.000  0.000
   167H     0.04125  0.09851   0.959  0.000  0.000
   168H     0.04172  0.09898   0.958  0.000  0.000
   169H     0.02927  0.08741   0.971  0.000  0.000
   170H     0.02203  0.08083   0.978  0.000  0.000
   171H     0.02074  0.07894   0.979  0.000  0.000
   172H     0.02061  0.07883   0.979  0.000  0.000
   173H     0.02199  0.08078   0.978  0.000  0.000
   174H     0.02887  0.08701   0.971  0.000  0.000
   175H     0.04131  0.09857   0.959  0.000  0.000
   176H     0.04170  0.09897   0.958  0.000  0.000
   177H     0.02941  0.08754   0.971  0.000  0.000
   178H     0.02197  0.08071   0.978  0.000  0.000
   179H     0.02026  0.07853   0.980  0.000  0.000
   180Co    0.32038  0.71809   0.325  0.981  7.374
   181C     0.01861  0.02555   1.080  2.901  0.000
   182C     0.06126  0.12654   1.116  2.823  0.000
   183C    -0.03507 -0.08084   1.079  2.956  0.000
   184C    -0.03591 -0.08209   1.075  2.961  0.000
   185C     0.05727  0.12054   1.104  2.839  0.000
   186N    -0.21321 -0.47164   1.317  3.896  0.000
   187C     0.00944  0.01478   1.082  2.908  0.000
   188C     0.01633  0.00754   1.089  2.894  0.000
   189C    -0.01624 -0.06948   1.077  2.940  0.000
   190C    -0.01163 -0.06370   1.092  2.920  0.000
   191C     0.01578  0.01204   1.076  2.908  0.000
   192C     0.11239  0.22996   1.210  2.678  0.000
   193N    -0.26804 -0.39267   1.544  3.724  0.000
   194C    -0.01173 -0.06380   1.092  2.920  0.000
   195C    -0.01625 -0.06954   1.076  2.940  0.000
   196C     0.05743  0.12096   1.104  2.839  0.000
   197C    -0.03644 -0.08262   1.077  2.960  0.000
   198C    -0.03586 -0.08153   1.081  2.955  0.000
   199N    -0.21354 -0.47180   1.317  3.896  0.000
   200C     0.06073  0.12574   1.115  2.824  0.000
   201C     0.01888  0.02581   1.079  2.902  0.000
   202C     0.06060  0.12556   1.115  2.824  0.000
   203C    -0.03599 -0.08165   1.081  2.955  0.000
   204C    -0.03652 -0.08269   1.077  2.960  0.000
   205C     0.05747  0.12106   1.104  2.839  0.000
   206N    -0.21355 -0.47185   1.317  3.896  0.000
   207C     0.00943  0.01477   1.082  2.908  0.000
   208C     0.01632  0.00754   1.089  2.894  0.000
   209C    -0.01619 -0.06945   1.076  2.940  0.000
   210C    -0.01161 -0.06368   1.092  2.920  0.000
   211C     0.01577  0.01203   1.076  2.908  0.000
   212C     0.11238  0.22995   1.210  2.678  0.000
   213N    -0.26807 -0.39269   1.544  3.724  0.000
   214C    -0.01177 -0.06385   1.092  2.920  0.000
   215C    -0.01631 -0.06958   1.077  2.940  0.000
   216C     0.05724  0.12046   1.104  2.839  0.000
   217C    -0.03588 -0.08208   1.075  2.960  0.000
   218C    -0.03506 -0.08084   1.079  2.956  0.000
   219C     0.06133  0.12666   1.115  2.823  0.000
   220N    -0.21323 -0.47157   1.317  3.896  0.000
   221H     0.02077  0.07908   0.979  0.000  0.000
   222H     0.02243  0.08129   0.978  0.000  0.000
   223H     0.02932  0.08734   0.971  0.000  0.000
   224H     0.04154  0.09881   0.958  0.000  0.000
   225H     0.04130  0.09856   0.959  0.000  0.000
   226H     0.02943  0.08745   0.971  0.000  0.000
   227H     0.02167  0.08058   0.978  0.000  0.000
   228H     0.02076  0.07896   0.979  0.000  0.000
   229H     0.02067  0.07881   0.979  0.000  0.000
   230H     0.02170  0.08058   0.978  0.000  0.000
   231H     0.02938  0.08740   0.971  0.000  0.000
   232H     0.04159  0.09885   0.958  0.000  0.000
   233H     0.04121  0.09847   0.959  0.000  0.000
   234H     0.02938  0.08739   0.971  0.000  0.000
   235H     0.02239  0.08126   0.978  0.000  0.000
   236H     0.02080  0.07913   0.979  0.000  0.000

Wiberg/Mayer (AO) data.
largest (>0.10) Wiberg bond orders for each atom

 ---------------------------------------------------------------------------
     #   Z sym  total        # sym  WBO       # sym  WBO       # sym  WBO
 ---------------------------------------------------------------------------
     1  27 Co   3.685 --     7 N    0.715    41 N    0.715    20 N    0.712
                            27 N    0.711
     2   6 C    3.840 --    40 C    1.394     3 C    1.392    42 H    0.997
     3   6 C    3.955 --     2 C    1.392     7 N    1.243     4 C    1.199
     4   6 C    3.855 --     5 C    1.643     3 C    1.199    43 H    0.994
     5   6 C    3.835 --     4 C    1.643     6 C    1.204    44 H    0.999
     6   6 C    3.932 --     8 C    1.360     7 N    1.250     5 C    1.204
     7   7 N    2.991 --     6 C    1.250     3 C    1.243     1 Co   0.715
     8   6 C    3.841 --    17 C    1.367     6 C    1.360     9 C    1.058
     9   6 C    3.867 --    16 C    1.414    10 C    1.414     8 C    1.058
    10   6 C    3.863 --    11 C    1.464     9 C    1.414    45 H    0.988
    11   6 C    3.906 --    10 C    1.464    12 C    1.382    46 H    0.985
    12   6 C    3.904 --    15 C    1.382    11 C    1.382    13 C    1.125
    13   6 C    4.102 --    14 N    2.961    12 C    1.125
    14   7 N    2.985 --    13 C    2.961
    15   6 C    3.906 --    16 C    1.464    12 C    1.382    47 H    0.985
    16   6 C    3.863 --    15 C    1.464     9 C    1.414    48 H    0.987
    17   6 C    3.923 --     8 C    1.367    20 N    1.241    18 C    1.209
    18   6 C    3.826 --    19 C    1.632    17 C    1.209    49 H    0.998
    19   6 C    3.831 --    18 C    1.632    21 C    1.219    50 H    0.999
    20   7 N    2.998 --    21 C    1.266    17 C    1.241     1 Co   0.712
    21   6 C    3.933 --    22 C    1.311    20 N    1.266    19 C    1.219
    22   6 C    3.866 --    21 C    1.311    23 C    1.310   117 C    1.197
    23   6 C    3.933 --    22 C    1.310    27 N    1.268    24 C    1.220
    24   6 C    3.831 --    25 C    1.632    23 C    1.220    51 H    0.999
    25   6 C    3.827 --    24 C    1.632    26 C    1.209    52 H    0.998
    26   6 C    3.923 --    28 C    1.369    27 N    1.239    25 C    1.209
    27   7 N    2.998 --    23 C    1.268    26 C    1.239     1 Co   0.711
    28   6 C    3.841 --    26 C    1.369    37 C    1.358    29 C    1.058
    29   6 C    3.867 --    36 C    1.415    30 C    1.414    28 C    1.058
    30   6 C    3.864 --    31 C    1.464    29 C    1.414    53 H    0.988
    31   6 C    3.906 --    30 C    1.464    32 C    1.382    54 H    0.986
    32   6 C    3.904 --    35 C    1.382    31 C    1.382    33 C    1.125
    33   6 C    4.102 --    34 N    2.961    32 C    1.125
    34   7 N    2.985 --    33 C    2.961
    35   6 C    3.906 --    36 C    1.464    32 C    1.382    55 H    0.985
    36   6 C    3.862 --    35 C    1.464    29 C    1.415    56 H    0.987
    37   6 C    3.932 --    28 C    1.358    41 N    1.252    38 C    1.205
    38   6 C    3.835 --    39 C    1.643    37 C    1.205    57 H    0.999
    39   6 C    3.855 --    38 C    1.643    40 C    1.198    58 H    0.994
    40   6 C    3.955 --     2 C    1.394    41 N    1.241    39 C    1.198
    41   7 N    2.991 --    37 C    1.252    40 C    1.241     1 Co   0.715
    42   1 H    1.035 --     2 C    0.997
    43   1 H    1.027 --     4 C    0.994
    44   1 H    1.042 --     5 C    0.999
    45   1 H    1.054 --    10 C    0.988
    46   1 H    1.038 --    11 C    0.985
    47   1 H    1.037 --    15 C    0.985
    48   1 H    1.053 --    16 C    0.987
    49   1 H    1.041 --    18 C    0.998
    50   1 H    1.043 --    19 C    0.999
    51   1 H    1.040 --    24 C    0.999
    52   1 H    1.042 --    25 C    0.998
    53   1 H    1.054 --    30 C    0.988
    54   1 H    1.038 --    31 C    0.986
    55   1 H    1.037 --    35 C    0.985
    56   1 H    1.053 --    36 C    0.987
    57   1 H    1.042 --    38 C    0.999
    58   1 H    1.027 --    39 C    0.994
    59  27 Co   3.646 --    65 N    0.710    99 N    0.710    78 N    0.708
                            85 N    0.708
    60   6 C    3.842 --    98 C    1.396    61 C    1.393   100 H    0.997
    61   6 C    3.955 --    60 C    1.393    65 N    1.246    62 C    1.198
    62   6 C    3.858 --    63 C    1.644    61 C    1.198   101 H    0.994
    63   6 C    3.835 --    62 C    1.644    64 C    1.203   102 H    0.999
    64   6 C    3.932 --    66 C    1.364    65 N    1.250    63 C    1.203
    65   7 N    2.992 --    64 C    1.250    61 C    1.246    59 Co   0.710
    66   6 C    3.843 --    75 C    1.368    64 C    1.364    67 C    1.052
    67   6 C    3.868 --    74 C    1.417    68 C    1.416    66 C    1.052
    68   6 C    3.866 --    69 C    1.463    67 C    1.416   103 H    0.987
    69   6 C    3.906 --    68 C    1.463    70 C    1.382   104 H    0.985
    70   6 C    3.905 --    73 C    1.383    69 C    1.382    71 C    1.125
    71   6 C    4.102 --    72 N    2.961    70 C    1.125
    72   7 N    2.986 --    71 C    2.961
    73   6 C    3.906 --    74 C    1.463    70 C    1.383   105 H    0.985
    74   6 C    3.866 --    73 C    1.463    67 C    1.417   106 H    0.987
    75   6 C    3.923 --    66 C    1.368    78 N    1.245    76 C    1.208
    76   6 C    3.831 --    77 C    1.636    75 C    1.208   107 H    0.998
    77   6 C    3.842 --    76 C    1.636    79 C    1.215   108 H    0.998
    78   7 N    2.999 --    79 C    1.263    75 C    1.245    59 Co   0.708
    79   6 C    3.940 --    80 C    1.324    78 N    1.263    77 C    1.215
    80   6 C    3.864 --    79 C    1.324    81 C    1.321   122 C    1.172
    81   6 C    3.941 --    80 C    1.321    85 N    1.266    82 C    1.216
    82   6 C    3.842 --    83 C    1.636    81 C    1.216   109 H    0.997
    83   6 C    3.832 --    82 C    1.636    84 C    1.207   110 H    0.998
    84   6 C    3.924 --    86 C    1.371    85 N    1.242    83 C    1.207
    85   7 N    2.999 --    81 C    1.266    84 C    1.242    59 Co   0.708
    86   6 C    3.843 --    84 C    1.371    95 C    1.361    87 C    1.052
    87   6 C    3.868 --    94 C    1.417    88 C    1.417    86 C    1.052
    88   6 C    3.867 --    89 C    1.463    87 C    1.417   111 H    0.987
    89   6 C    3.907 --    88 C    1.463    90 C    1.382   112 H    0.986
    90   6 C    3.905 --    93 C    1.383    89 C    1.382    91 C    1.125
    91   6 C    4.102 --    92 N    2.961    90 C    1.125
    92   7 N    2.986 --    91 C    2.961
    93   6 C    3.905 --    94 C    1.463    90 C    1.383   113 H    0.985
    94   6 C    3.865 --    93 C    1.463    87 C    1.417   114 H    0.987
    95   6 C    3.932 --    86 C    1.361    99 N    1.253    96 C    1.204
    96   6 C    3.835 --    97 C    1.644    95 C    1.204   115 H    0.999
    97   6 C    3.858 --    96 C    1.644    98 C    1.197   116 H    0.994
    98   6 C    3.955 --    60 C    1.396    99 N    1.243    97 C    1.197
    99   7 N    2.992 --    95 C    1.253    98 C    1.243    59 Co   0.710
   100   1 H    1.036 --    60 C    0.997
   101   1 H    1.027 --    62 C    0.994
   102   1 H    1.044 --    63 C    0.999
   103   1 H    1.054 --    68 C    0.987
   104   1 H    1.038 --    69 C    0.985
   105   1 H    1.037 --    73 C    0.985
   106   1 H    1.053 --    74 C    0.987
   107   1 H    1.043 --    76 C    0.998
   108   1 H    1.047 --    77 C    0.998
   109   1 H    1.045 --    82 C    0.997
   110   1 H    1.042 --    83 C    0.998
   111   1 H    1.054 --    88 C    0.987
   112   1 H    1.038 --    89 C    0.986
   113   1 H    1.037 --    93 C    0.985
   114   1 H    1.053 --    94 C    0.987
   115   1 H    1.043 --    96 C    0.999
   116   1 H    1.027 --    97 C    0.994
   117   6 C    3.778 --   118 C    2.640    22 C    1.197
   118   6 C    3.781 --   117 C    2.640   124 C    1.199
   119   6 C    3.777 --   120 C    2.639   144 C    1.197
   120   6 C    3.777 --   119 C    2.639   181 C    1.196
   121   6 C    3.775 --   122 C    2.658   201 C    1.174
   122   6 C    3.772 --   121 C    2.658    80 C    1.172
   123  27 Co   3.643 --   149 N    0.710   129 N    0.710   142 N    0.708
                           163 N    0.707
   124   6 C    3.859 --   125 C    1.310   162 C    1.306   118 C    1.199
   125   6 C    3.935 --   124 C    1.310   129 N    1.267   126 C    1.221
   126   6 C    3.830 --   127 C    1.630   125 C    1.221   164 H    0.999
   127   6 C    3.827 --   126 C    1.630   128 C    1.212   165 H    0.998
   128   6 C    3.920 --   130 C    1.364   129 N    1.242   127 C    1.212
   129   7 N    2.989 --   125 C    1.267   128 C    1.242   123 Co   0.710
   130   6 C    3.837 --   128 C    1.364   139 C    1.363   131 C    1.059
   131   6 C    3.866 --   132 C    1.414   138 C    1.414   130 C    1.059
   132   6 C    3.862 --   133 C    1.464   131 C    1.414   166 H    0.987
   133   6 C    3.906 --   132 C    1.464   134 C    1.382   167 H    0.985
   134   6 C    3.904 --   133 C    1.382   137 C    1.382   135 C    1.125
   135   6 C    4.102 --   136 N    2.962   134 C    1.125
   136   7 N    2.986 --   135 C    2.962
   137   6 C    3.905 --   138 C    1.464   134 C    1.382   168 H    0.985
   138   6 C    3.862 --   137 C    1.464   131 C    1.414   169 H    0.987
   139   6 C    3.919 --   130 C    1.363   142 N    1.241   140 C    1.212
   140   6 C    3.828 --   141 C    1.629   139 C    1.212   170 H    0.998
   141   6 C    3.830 --   140 C    1.629   143 C    1.221   171 H    0.999
   142   7 N    2.989 --   143 C    1.269   139 C    1.241   123 Co   0.708
   143   6 C    3.935 --   144 C    1.308   142 N    1.269   141 C    1.221
   144   6 C    3.858 --   145 C    1.310   143 C    1.308   119 C    1.197
   145   6 C    3.935 --   144 C    1.310   149 N    1.268   146 C    1.220
   146   6 C    3.831 --   147 C    1.630   145 C    1.220   172 H    0.999
   147   6 C    3.828 --   146 C    1.630   148 C    1.211   173 H    0.998
   148   6 C    3.920 --   150 C    1.366   149 N    1.240   147 C    1.211
   149   7 N    2.989 --   145 C    1.268   148 C    1.240   123 Co   0.710
   150   6 C    3.837 --   148 C    1.366   159 C    1.361   151 C    1.059
   151   6 C    3.866 --   152 C    1.414   158 C    1.414   150 C    1.059
   152   6 C    3.862 --   153 C    1.464   151 C    1.414   174 H    0.987
   153   6 C    3.906 --   152 C    1.464   154 C    1.382   175 H    0.985
   154   6 C    3.904 --   153 C    1.382   157 C    1.382   155 C    1.125
   155   6 C    4.102 --   156 N    2.962   154 C    1.125
   156   7 N    2.986 --   155 C    2.962
   157   6 C    3.905 --   158 C    1.464   154 C    1.382   176 H    0.985
   158   6 C    3.861 --   157 C    1.464   151 C    1.414   177 H    0.987
   159   6 C    3.920 --   150 C    1.361   163 N    1.242   160 C    1.213
   160   6 C    3.827 --   161 C    1.628   159 C    1.213   178 H    0.998
   161   6 C    3.829 --   160 C    1.628   162 C    1.223   179 H    0.999
   162   6 C    3.933 --   124 C    1.306   163 N    1.268   161 C    1.223
   163   7 N    2.989 --   162 C    1.268   159 C    1.242   123 Co   0.707
   164   1 H    1.040 --   126 C    0.999
   165   1 H    1.042 --   127 C    0.998
   166   1 H    1.052 --   132 C    0.987
   167   1 H    1.037 --   133 C    0.985
   168   1 H    1.037 --   137 C    0.985
   169   1 H    1.052 --   138 C    0.987
   170   1 H    1.042 --   140 C    0.998
   171   1 H    1.041 --   141 C    0.999
   172   1 H    1.042 --   146 C    0.999
   173   1 H    1.042 --   147 C    0.998
   174   1 H    1.052 --   152 C    0.987
   175   1 H    1.037 --   153 C    0.985
   176   1 H    1.037 --   157 C    0.985
   177   1 H    1.052 --   158 C    0.987
   178   1 H    1.042 --   160 C    0.998
   179   1 H    1.041 --   161 C    0.999
   180  27 Co   3.615 --   199 N    0.707   206 N    0.706   186 N    0.706
                           220 N    0.706
   181   6 C    3.860 --   182 C    1.311   219 C    1.310   120 C    1.196
   182   6 C    3.935 --   181 C    1.311   186 N    1.270   183 C    1.220
   183   6 C    3.833 --   184 C    1.631   182 C    1.220   221 H    0.999
   184   6 C    3.827 --   183 C    1.631   185 C    1.211   222 H    0.998
   185   6 C    3.919 --   187 C    1.368   186 N    1.242   184 C    1.211
   186   7 N    2.991 --   182 C    1.270   185 C    1.242   180 Co   0.706
   187   6 C    3.838 --   185 C    1.368   196 C    1.364   188 C    1.055
   188   6 C    3.866 --   195 C    1.416   189 C    1.416   187 C    1.055
   189   6 C    3.865 --   190 C    1.463   188 C    1.416   223 H    0.987
   190   6 C    3.906 --   189 C    1.463   191 C    1.383   224 H    0.985
   191   6 C    3.905 --   194 C    1.383   190 C    1.383   192 C    1.124
   192   6 C    4.102 --   193 N    2.962   191 C    1.124
   193   7 N    2.986 --   192 C    2.962
   194   6 C    3.906 --   195 C    1.463   191 C    1.383   225 H    0.985
   195   6 C    3.864 --   194 C    1.463   188 C    1.416   226 H    0.987
   196   6 C    3.920 --   187 C    1.364   199 N    1.245   197 C    1.210
   197   6 C    3.832 --   198 C    1.632   196 C    1.210   227 H    0.998
   198   6 C    3.839 --   197 C    1.632   200 C    1.218   228 H    0.998
   199   7 N    2.991 --   200 C    1.265   196 C    1.245   180 Co   0.707
   200   6 C    3.940 --   201 C    1.319   199 N    1.265   198 C    1.218
   201   6 C    3.855 --   202 C    1.321   200 C    1.319   121 C    1.174
   202   6 C    3.940 --   201 C    1.321   206 N    1.264   203 C    1.218
   203   6 C    3.841 --   204 C    1.632   202 C    1.218   229 H    0.998
   204   6 C    3.832 --   203 C    1.632   205 C    1.211   230 H    0.998
   205   6 C    3.920 --   207 C    1.363   206 N    1.246   204 C    1.211
   206   7 N    2.991 --   202 C    1.264   205 C    1.246   180 Co   0.706
   207   6 C    3.838 --   216 C    1.369   205 C    1.363   208 C    1.055
   208   6 C    3.866 --   209 C    1.416   215 C    1.416   207 C    1.055
   209   6 C    3.864 --   210 C    1.463   208 C    1.416   231 H    0.987
   210   6 C    3.906 --   209 C    1.463   211 C    1.383   232 H    0.985
   211   6 C    3.905 --   214 C    1.383   210 C    1.383   212 C    1.124
   212   6 C    4.102 --   213 N    2.962   211 C    1.124
   213   7 N    2.986 --   212 C    2.962
   214   6 C    3.906 --   215 C    1.463   211 C    1.383   233 H    0.985
   215   6 C    3.865 --   214 C    1.463   208 C    1.416   234 H    0.987
   216   6 C    3.919 --   207 C    1.369   220 N    1.241   217 C    1.210
   217   6 C    3.827 --   218 C    1.632   216 C    1.210   235 H    0.998
   218   6 C    3.833 --   217 C    1.632   219 C    1.220   236 H    0.999
   219   6 C    3.935 --   181 C    1.310   220 N    1.271   218 C    1.220
   220   7 N    2.991 --   219 C    1.271   216 C    1.241   180 Co   0.706
   221   1 H    1.044 --   183 C    0.999
   222   1 H    1.041 --   184 C    0.998
   223   1 H    1.052 --   189 C    0.987
   224   1 H    1.037 --   190 C    0.985
   225   1 H    1.037 --   194 C    0.985
   226   1 H    1.052 --   195 C    0.987
   227   1 H    1.041 --   197 C    0.998
   228   1 H    1.047 --   198 C    0.998
   229   1 H    1.046 --   203 C    0.998
   230   1 H    1.040 --   204 C    0.998
   231   1 H    1.052 --   209 C    0.987
   232   1 H    1.037 --   210 C    0.985
   233   1 H    1.038 --   214 C    0.985
   234   1 H    1.052 --   215 C    0.987
   235   1 H    1.041 --   217 C    0.998
   236   1 H    1.044 --   218 C    0.999
 ---------------------------------------------------------------------------

Topologies differ in total number of bonds
Writing topology from bond orders to xtbtopo.mol

 dipole moment from electron density (au)
     X       Y       Z   
-133.7715  -0.0283   0.1483  total (Debye):  340.014


           -------------------------------------------------
          | TOTAL ENERGY             -484.029435390203 Eh   |
          | GRADIENT NORM               0.107722241420 Eh/α |
          | HOMO-LUMO GAP               0.005515547614 eV   |
           -------------------------------------------------
########################################################################
[WARNING] Runtime exception occurred
-1- restart_readRestart: Dimension missmatch in restart file.
########################################################################

------------------------------------------------------------------------
 * finished run on 2022/07/30 at 08:26:30.738     
------------------------------------------------------------------------
 total:
 * wall-time:     0 d,  0 h,  0 min, 47.027 sec
 *  cpu-time:     0 d,  0 h,  0 min, 46.785 sec
 * ratio c/w:     0.995 speedup
 SCF:
 * wall-time:     0 d,  0 h,  0 min, 46.204 sec
 *  cpu-time:     0 d,  0 h,  0 min, 45.974 sec
 * ratio c/w:     0.995 speedup

