      -----------------------------------------------------------      
     |                   =====================                   |     
     |                           x T B                           |     
     |                   =====================                   |     
     |                         S. Grimme                         |     
     |          Mulliken Center for Theoretical Chemistry        |     
     |                    University of Bonn                     |     
      -----------------------------------------------------------      

   * xtb version 6.4.1 (bd6e46d) compiled by 'conda@4901f00b25ba' on 2021-06-10

   xtb is free software: you can redistribute it and/or modify it under
   the terms of the GNU Lesser General Public License as published by
   the Free Software Foundation, either version 3 of the License, or
   (at your option) any later version.
   
   xtb is distributed in the hope that it will be useful,
   but WITHOUT ANY WARRANTY; without even the implied warranty of
   MERCHANTABILITY or FITNESS FOR A PARTICULAR PURPOSE.  See the
   GNU Lesser General Public License for more details.
   
   Cite this work as:
   * C. Bannwarth, E. Caldeweyher, S. Ehlert, A. Hansen, P. Pracht,
     J. Seibert, S. Spicher, S. Grimme, WIREs Comput. Mol. Sci., 2020, 11,
     e01493. DOI: 10.1002/wcms.1493
   
   for GFN2-xTB:
   * C. Bannwarth, S. Ehlert and S. Grimme., J. Chem. Theory Comput., 2019,
     15, 1652-1671. DOI: 10.1021/acs.jctc.8b01176
   for GFN1-xTB:
   * S. Grimme, C. Bannwarth, P. Shushkov, J. Chem. Theory Comput., 2017,
     13, 1989-2009. DOI: 10.1021/acs.jctc.7b00118
   for GFN0-xTB:
   * P. Pracht, E. Caldeweyher, S. Ehlert, S. Grimme, ChemRxiv, 2019, preprint.
     DOI: 10.26434/chemrxiv.8326202.v1
   for GFN-FF:
   * S. Spicher and S. Grimme, Angew. Chem. Int. Ed., 2020, 59, 15665-15673.
     DOI: 10.1002/anie.202004239
   
   for DFT-D4:
   * E. Caldeweyher, C. Bannwarth and S. Grimme, J. Chem. Phys., 2017,
     147, 034112. DOI: 10.1063/1.4993215
   * E. Caldeweyher, S. Ehlert, A. Hansen, H. Neugebauer, S. Spicher,
     C. Bannwarth and S. Grimme, J. Chem. Phys., 2019, 150, 154122.
     DOI: 10.1063/1.5090222
   * E. Caldeweyher, J.-M. Mewes, S. Ehlert and S. Grimme, Phys. Chem. Chem. Phys.
     2020, 22, 8499-8512. DOI: 10.1039/D0CP00502A
   
   for sTDA-xTB:
   * S. Grimme and C. Bannwarth, J. Chem. Phys., 2016, 145, 054103.
     DOI: 10.1063/1.4959605
   
   in the mass-spec context:
   * V. Asgeirsson, C. Bauer and S. Grimme, Chem. Sci., 2017, 8, 4879.
     DOI: 10.1039/c7sc00601b
   * J. Koopman and S. Grimme, ACS Omega 2019, 4, 12, 15120-15133.
     DOI: 10.1021/acsomega.9b02011
   
   for metadynamics refer to:
   * S. Grimme, J. Chem. Theory Comput., 2019, 155, 2847-2862
     DOI: 10.1021/acs.jctc.9b00143
   
   for SPH calculations refer to:
   * S. Spicher and S. Grimme, J. Chem. Theory Comput., 2021, 17, 1701-1714
     DOI: 10.1021/acs.jctc.0c01306
   
   with help from (in alphabetical order)
   P. Atkinson, C. Bannwarth, F. Bohle, G. Brandenburg, E. Caldeweyher
   M. Checinski, S. Dohm, S. Ehlert, S. Ehrlich, I. Gerasimov, J. Koopman
   C. Lavigne, S. Lehtola, F. März, M. Müller, F. Musil, H. Neugebauer
   J. Pisarek, C. Plett, P. Pracht, J. Seibert, P. Shushkov, S. Spicher
   M. Stahn, M. Steiner, T. Strunk, J. Stückrath, T. Rose, and J. Unsleber
   
 * started run on 2022/08/01 at 17:01:56.906     

           -------------------------------------------------
          |                Calculation Setup                |
           -------------------------------------------------

          program call               : /home/xwu/miniconda3/bin/xtb PhNO2_C8_9.xyz --gfn 1 --opt -T 10
          hostname                   : jelfscompute4
          coordinate file            : PhNO2_C8_9.xyz
          omp threads                :                    10
          number of atoms            :                   606
          number of electrons        :                  2058
          charge                     :                     0
          spin                       :                   0.0
          first test random number   :      0.92270686273801

   ID    Z sym.   atoms
    1    6 C      1-5, 7-11, 15-19, 21-26, 28-32, 36-41, 62-66, 68-72, 76-80,
                  82-87, 89-93, 97-102, 123-191, 193-197, 201-205, 207-212,
                  214-218, 222-227, 247-251, 253-257, 261-265, 267-272,
                  274-278, 282-287, 307-311, 313-317, 321-325, 327-332,
                  334-338, 342-347, 367-371, 373-377, 381-385, 387-392,
                  394-398, 402-407, 427-431, 433-437, 441-445, 447-452,
                  454-458, 462-467, 487-491, 493-497, 501-505, 507-512,
                  514-518, 522-527, 547-551, 553-557, 561-565, 567-572,
                  574-578, 582-587
    2    7 N      6, 12, 20, 27, 33, 42, 67, 73, 81, 88, 94, 103, 192, 198,
                  206, 213, 219, 228, 252, 258, 266, 273, 279, 288, 312, 318,
                  326, 333, 339, 348, 372, 378, 386, 393, 399, 408, 432, 438,
                  446, 453, 459, 468, 492, 498, 506, 513, 519, 528, 552, 558,
                  566, 573, 579, 588
    3    8 O      13, 14, 34, 35, 74, 75, 95, 96, 199, 200, 220, 221, 259,
                  260, 280, 281, 319, 320, 340, 341, 379, 380, 400, 401, 439,
                  440, 460, 461, 499, 500, 520, 521, 559, 560, 580, 581
    4    1 H      43-61, 104-122, 229-246, 289-306, 349-366, 409-426,
                  469-486, 529-546, 589-606

molecular fragmentation (1/2 indicates fragments):
111111111111111111111111111111111111111111111111111111111111122222222222
222222222222222222222222222222222222222222222222222222222222222222222222
222222222222222222222222222222222222222222222222222222222222222222222222
222222222222222222222222222222222222222222222222222222222222222222222222
222222222222222222222222222222222222222222222222222222222222222222222222
222222222222222222222222222222222222222222222222222222222222222222222222
222222222222222222222222222222222222222222222222222222222222222222222222
222222222222222222222222222222222222222222222222222222222222222222222222
222222222222222222222222222222
# atoms in fragment 1/2:    61   545
 fragment masses (1/2) :      551.53     5173.89
CMA distance (Bohr)    : 152.103
constraining FC (au)   :  0.0500
########################################################################
[WARNING] Please study the warnings concerning your input carefully
-1- prog_main_parseArguments: Unknown option '-T' provided
########################################################################

           -------------------------------------------------
          |                 G F N 1 - x T B                 |
           -------------------------------------------------

        Reference                      10.1021/acs.jctc.7b00118
      * Hamiltonian:
        H0-scaling (s, p, d)           1.850000    2.250000    2.000000
        zeta-weighting                 0.000000
      * Dispersion:
        s8                             2.400000
        a1                             0.630000
        a2                             5.000000
        s9                             0.000000
      * Repulsion:
        kExp                           1.500000
        rExp                           1.000000
      * Coulomb:
        alpha                          2.000000
        third order                    atomic
        anisotropic                    false
      * Halogen bond correction:
        rad-scale                      1.300000
        damping                        0.440000


          ...................................................
          :                      SETUP                      :
          :.................................................:
          :  # basis functions                2096          :
          :  # atomic orbitals                2096          :
          :  # shells                         1212          :
          :  # electrons                      2058          :
          :  # halogen bonds                     0          :
          :  max. iterations                   250          :
          :  Hamiltonian                  GFN1-xTB          :
          :  restarted?                      false          :
          :  GBSA solvation                  false          :
          :  PC potential                    false          :
          :  electronic temp.          300.0000000     K    :
          :  accuracy                    1.0000000          :
          :  -> integral cutoff          0.2500000E+02      :
          :  -> integral neglect         0.1000000E-07      :
          :  -> SCF convergence          0.1000000E-05 Eh   :
          :  -> wf. convergence          0.2000000E-04 e    :
          :  Broyden damping             0.4000000          :
          ...................................................

 iter      E             dE          RMSdq      gap      omega  full diag
   1  -1183.1381115 -0.118314E+04  0.107E+01    0.00       0.0  T
   2  -1135.8742838  0.472638E+02  0.686E+00    0.01       1.0  T
   3   8995.6894449  0.101316E+05  0.198E+01    0.01       1.0  T
   4  12796.9062883  0.380122E+04  0.223E+01    0.00       1.0  T
   5   1129.0736723 -0.116678E+05  0.113E+01    0.02       1.0  T
   6   2064.9929406  0.935919E+03  0.117E+01    0.00       1.0  T
   7   3482.0259642  0.141703E+04  0.134E+01    0.02       1.0  T
   8    759.3482097 -0.272268E+04  0.103E+01    0.04       1.0  T
   9    660.5240240 -0.988242E+02  0.961E+00    0.02       1.0  T
  10   -541.2930931 -0.120182E+04  0.677E+00    0.02       1.0  T
  11   -595.6350328 -0.543419E+02  0.619E+00    0.00       1.0  T
  12   -682.1649769 -0.865299E+02  0.585E+00    0.02       1.0  T
  13   -500.3176978  0.181847E+03  0.651E+00    0.03       1.0  T
  14   -350.1787205  0.150139E+03  0.678E+00    0.00       1.0  T
  15   -390.5156729 -0.403370E+02  0.658E+00    0.02       1.0  T
  16   -395.0310111 -0.451534E+01  0.656E+00    0.01       1.0  T
  17   -394.5703872  0.460624E+00  0.656E+00    0.00       1.0  T
  18   -390.9622865  0.360810E+01  0.657E+00    0.01       1.0  T
  19   -402.5446743 -0.115824E+02  0.657E+00    0.01       1.0  T
  20   -401.6516683  0.893006E+00  0.657E+00    0.00       1.0  T
  21   -415.9353399 -0.142837E+02  0.656E+00    0.02       1.0  T
  22   -404.6848526  0.112505E+02  0.662E+00    0.01       1.0  T
  23   -361.8960289  0.427888E+02  0.664E+00    0.00       1.0  T
  24   -491.5283061 -0.129632E+03  0.612E+00    0.03       1.0  T
  25   -434.0539275  0.574744E+02  0.620E+00    0.00       1.0  T
  26   -458.2471529 -0.241932E+02  0.607E+00    0.01       1.0  T
  27   -484.6656767 -0.264185E+02  0.593E+00    0.02       1.0  T
  28   -379.2269069  0.105439E+03  0.620E+00    0.01       1.0  T
  29   -415.5577870 -0.363309E+02  0.607E+00    0.00       1.0  T
  30   -393.2584643  0.222993E+02  0.617E+00    0.01       1.0  T
  31   -326.3428362  0.669156E+02  0.632E+00    0.00       1.0  T
  32   -357.6567965 -0.313140E+02  0.622E+00    0.00       1.0  T
  33   -274.4415681  0.832152E+02  0.645E+00    0.00       1.0  T
  34   -341.4903249 -0.670488E+02  0.625E+00    0.02       1.0  T
  35   -371.9355883 -0.304453E+02  0.621E+00    0.01       1.0  T
  36   -287.4109263  0.845247E+02  0.649E+00    0.02       1.0  T
  37   -342.1065083 -0.546956E+02  0.633E+00    0.01       1.0  T
  38   -376.3630646 -0.342566E+02  0.618E+00    0.01       1.0  T
  39   -460.1084347 -0.837454E+02  0.602E+00    0.01       1.0  T
  40   -533.5971140 -0.734887E+02  0.572E+00    0.01       1.0  T
  41   -630.7057193 -0.971086E+02  0.525E+00    0.01       1.0  T
  42   -730.9464769 -0.100241E+03  0.497E+00    0.02       1.0  T
  43   -871.5703412 -0.140624E+03  0.420E+00    0.01       1.0  T
  44   -969.1949114 -0.976246E+02  0.358E+00    0.01       1.0  T
  45  -1080.1768416 -0.110982E+03  0.289E+00    0.00       1.0  T
  46  -1115.4741530 -0.352973E+02  0.255E+00    0.00       1.0  T
  47  -1143.9960709 -0.285219E+02  0.228E+00    0.04       1.0  T
  48  -1149.6318910 -0.563582E+01  0.213E+00    0.02       1.0  T
  49  -1156.5460517 -0.691416E+01  0.199E+00    0.08       1.0  T
  50  -1160.0794173 -0.353337E+01  0.189E+00    0.02       1.0  T
  51  -1164.3784701 -0.429905E+01  0.185E+00    0.01       1.0  T
  52  -1168.2453858 -0.386692E+01  0.178E+00    0.01       1.0  T
  53  -1172.4841057 -0.423872E+01  0.173E+00    0.04       1.0  T
  54  -1172.2525714  0.231534E+00  0.169E+00    0.06       1.0  T
  55  -1173.4194700 -0.116690E+01  0.167E+00    0.02       1.0  T
  56  -1171.9504062  0.146906E+01  0.172E+00    0.01       1.0  T
  57  -1176.5484280 -0.459802E+01  0.157E+00    0.03       1.0  T
  58  -1180.4391556 -0.389073E+01  0.145E+00    0.00       1.0  T
  59  -1178.5661893  0.187297E+01  0.155E+00    0.01       1.0  T
  60  -1180.1088561 -0.154267E+01  0.147E+00    0.01       1.0  T
  61  -1180.1151662 -0.631012E-02  0.146E+00    0.01       1.0  T
  62  -1179.8232697  0.291897E+00  0.149E+00    0.02       1.0  T
  63  -1179.9532566 -0.129987E+00  0.147E+00    0.01       1.0  T
  64  -1179.9780007 -0.247441E-01  0.147E+00    0.01       1.0  T
  65  -1179.9593363  0.186645E-01  0.148E+00    0.03       1.0  T
  66  -1179.8090406  0.150296E+00  0.148E+00    0.00       1.0  T
  67  -1179.6208600  0.188181E+00  0.148E+00    0.03       1.0  T
  68  -1179.6758851 -0.550251E-01  0.148E+00    0.03       1.0  T
  69  -1171.0306411  0.864524E+01  0.177E+00    0.00       1.0  T
  70  -1172.3588398 -0.132820E+01  0.168E+00    0.03       1.0  T
  71  -1173.6039404 -0.124510E+01  0.162E+00    0.02       1.0  T
  72  -1172.1117356  0.149220E+01  0.165E+00    0.01       1.0  T
  73  -1155.1892457  0.169225E+02  0.195E+00    0.02       1.0  T
  74  -1148.5738774  0.661537E+01  0.198E+00    0.04       1.0  T
  75  -1148.4813606  0.925168E-01  0.196E+00    0.05       1.0  T
  76  -1147.2912963  0.119006E+01  0.199E+00    0.05       1.0  T
  77  -1148.8057242 -0.151443E+01  0.196E+00    0.06       1.0  T
  78  -1151.5125006 -0.270678E+01  0.189E+00    0.03       1.0  T
  79  -1149.9352739  0.157723E+01  0.190E+00    0.01       1.0  T
  80  -1151.7503549 -0.181508E+01  0.186E+00    0.01       1.0  T
  81  -1155.0202886 -0.326993E+01  0.177E+00    0.03       1.0  T
  82  -1152.3887704  0.263152E+01  0.185E+00    0.05       1.0  T
  83  -1156.1547695 -0.376600E+01  0.162E+00    0.00       1.0  T
  84  -1155.9837424  0.171027E+00  0.160E+00    0.01       1.0  T
  85  -1159.1868430 -0.320310E+01  0.153E+00    0.02       1.0  T
  86  -1167.8849062 -0.869806E+01  0.137E+00    0.02       1.0  T
  87  -1162.8840142  0.500089E+01  0.159E+00    0.01       1.0  T
  88  -1167.7510989 -0.486708E+01  0.140E+00    0.05       1.0  T
  89  -1162.8530474  0.489805E+01  0.156E+00    0.02       1.0  T
  90  -1161.2302090  0.162284E+01  0.159E+00    0.05       1.0  T
  91  -1157.6759598  0.355425E+01  0.169E+00    0.01       1.0  T
  92  -1168.7576944 -0.110817E+02  0.140E+00    0.03       1.0  T
  93  -1163.9755857  0.478211E+01  0.159E+00    0.00       1.0  T
  94  -1163.9820974 -0.651169E-02  0.167E+00    0.01       1.0  T
  95  -1165.5045120 -0.152241E+01  0.161E+00    0.01       1.0  T
  96  -1169.8206093 -0.431610E+01  0.132E+00    0.03       1.0  T
  97  -1173.9625722 -0.414196E+01  0.132E+00    0.02       1.0  T
  98  -1182.2469393 -0.828437E+01  0.104E+00    0.02       1.0  T
  99  -1180.0331378  0.221380E+01  0.106E+00    0.03       1.0  T
 100  -1181.2769082 -0.124377E+01  0.101E+00    0.05       1.0  T
 101  -1181.1846179  0.922903E-01  0.974E-01    0.02       1.0  T
 102  -1184.7301839 -0.354557E+01  0.105E+00    0.02       1.0  T
 103  -1184.8775980 -0.147414E+00  0.100E+00    0.00       1.0  T
 104  -1184.9496611 -0.720630E-01  0.100E+00    0.03       1.0  T
 105  -1186.8883049 -0.193864E+01  0.775E-01    0.17       1.0  T
 106  -1186.9872509 -0.989460E-01  0.725E-01    0.10       1.0  T
 107  -1187.0477106 -0.604597E-01  0.690E-01    0.06       1.0  T
 108  -1186.9054361  0.142275E+00  0.629E-01    0.04       1.0  T
 109  -1187.1624308 -0.256995E+00  0.561E-01    0.08       1.0  T
 110  -1187.2336587 -0.712279E-01  0.521E-01    0.12       1.0  T
 111  -1187.0157542  0.217904E+00  0.495E-01    0.05       1.0  T
 112  -1187.3123236 -0.296569E+00  0.426E-01    0.04       1.0  T
 113  -1187.3221658 -0.984226E-02  0.429E-01    0.10       1.0  T
 114  -1187.3204230  0.174283E-02  0.422E-01    0.11       1.0  T
 115  -1187.3763311 -0.559081E-01  0.389E-01    0.05       1.0  T
 116  -1187.3669654  0.936574E-02  0.383E-01    0.05       1.0  T
 117  -1187.3796365 -0.126711E-01  0.368E-01    0.06       1.0  T
 118  -1187.3257995  0.538370E-01  0.360E-01    0.07       1.0  T
 119  -1187.3849194 -0.591199E-01  0.340E-01    0.09       1.0  T
 120  -1187.3271580  0.577613E-01  0.329E-01    0.06       1.0  T
 121  -1187.3907371 -0.635790E-01  0.315E-01    0.09       1.0  T
 122  -1187.4296642 -0.389272E-01  0.296E-01    0.10       1.0  T
 123  -1187.3352513  0.944129E-01  0.294E-01    0.04       1.0  T
 124  -1187.3675413 -0.322899E-01  0.287E-01    0.06       1.0  T
 125  -1187.3123564  0.551849E-01  0.297E-01    0.03       1.0  T
 126  -1187.4258994 -0.113543E+00  0.247E-01    0.07       1.0  T
 127  -1187.4646605 -0.387611E-01  0.227E-01    0.06       1.0  T
 128  -1187.5093587 -0.446982E-01  0.215E-01    0.04       1.0  T
 129  -1187.5137993 -0.444063E-02  0.203E-01    0.05       1.0  T
 130  -1187.5277351 -0.139358E-01  0.195E-01    0.05       1.0  T
 131  -1187.5405734 -0.128383E-01  0.188E-01    0.04       1.0  T
 132  -1187.5473473 -0.677386E-02  0.185E-01    0.04       1.0  T
 133  -1187.5649854 -0.176381E-01  0.179E-01    0.02       1.0  T
 134  -1187.5547489  0.102365E-01  0.180E-01    0.03       1.0  T
 135  -1187.5729981 -0.182492E-01  0.172E-01    0.01       1.0  T
 136  -1187.5658627  0.713542E-02  0.169E-01    0.02       1.0  T
 137  -1187.5766185 -0.107558E-01  0.162E-01    0.01       1.0  T
 138  -1187.5831040 -0.648549E-02  0.150E-01    0.01       1.0  T
 139  -1187.5863389 -0.323489E-02  0.142E-01    0.01       1.0  T
 140  -1187.5878036 -0.146470E-02  0.134E-01    0.01       1.0  T
 141  -1187.5901659 -0.236230E-02  0.131E-01    0.01       1.0  T
 142  -1187.5928159 -0.264995E-02  0.125E-01    0.01       1.0  T
 143  -1187.5951130 -0.229714E-02  0.120E-01    0.01       1.0  T
 144  -1187.6003001 -0.518712E-02  0.114E-01    0.00       1.0  T
 145  -1187.6017508 -0.145065E-02  0.111E-01    0.00       1.0  T
 146  -1187.6034952 -0.174449E-02  0.108E-01    0.00       1.0  T
 147  -1187.6077870 -0.429173E-02  0.100E-01    0.01       1.0  T
 148  -1187.6095473 -0.176032E-02  0.949E-02    0.01       1.0  T
 149  -1187.6101858 -0.638535E-03  0.915E-02    0.01       1.0  T
 150  -1187.6134354 -0.324960E-02  0.823E-02    0.02       1.0  T
 151  -1187.6153620 -0.192661E-02  0.754E-02    0.02       1.0  T
 152  -1187.6163748 -0.101281E-02  0.702E-02    0.02       1.0  T
 153  -1187.6178515 -0.147667E-02  0.632E-02    0.02       1.0  T
 154  -1187.6187282 -0.876668E-03  0.598E-02    0.02       1.0  T
 155  -1187.6189179 -0.189729E-03  0.574E-02    0.02       1.0  T
 156  -1187.6195895 -0.671610E-03  0.539E-02    0.02       1.0  T
 157  -1187.6200647 -0.475203E-03  0.512E-02    0.02       1.0  T
 158  -1187.6207178 -0.653032E-03  0.472E-02    0.02       1.0  T
 159  -1187.6209682 -0.250489E-03  0.441E-02    0.03       1.0  T
 160  -1187.6214488 -0.480575E-03  0.425E-02    0.02       1.0  T
 161  -1187.6217629 -0.314054E-03  0.412E-02    0.02       1.0  T
 162  -1187.6222568 -0.493948E-03  0.386E-02    0.03       1.0  T
 163  -1187.6226101 -0.353250E-03  0.371E-02    0.03       1.0  T
 164  -1187.6228031 -0.192994E-03  0.354E-02    0.03       1.0  T
 165  -1187.6231217 -0.318593E-03  0.326E-02    0.03       1.0  T
 166  -1187.6232785 -0.156853E-03  0.312E-02    0.03       1.0  T
 167  -1187.6236577 -0.379221E-03  0.290E-02    0.03       1.0  T
 168  -1187.6238653 -0.207517E-03  0.269E-02    0.03       1.0  T
 169  -1187.6240932 -0.227989E-03  0.250E-02    0.03       1.0  T
 170  -1187.6242924 -0.199156E-03  0.233E-02    0.03       1.0  T
 171  -1187.6244401 -0.147741E-03  0.220E-02    0.03       1.0  T
 172  -1187.6246221 -0.181924E-03  0.202E-02    0.03       1.0  T
 173  -1187.6247262 -0.104180E-03  0.187E-02    0.03       1.0  T
 174  -1187.6247972 -0.709083E-04  0.179E-02    0.03       1.0  T
 175  -1187.6248414 -0.442673E-04  0.174E-02    0.03       1.0  T
 176  -1187.6249249 -0.834378E-04  0.161E-02    0.03       1.0  T
 177  -1187.6249426 -0.177341E-04  0.156E-02    0.03       1.0  T
 178  -1187.6250244 -0.818169E-04  0.147E-02    0.03       1.0  T
 179  -1187.6250889 -0.644710E-04  0.141E-02    0.02       1.0  T
 180  -1187.6251454 -0.565355E-04  0.135E-02    0.02       1.0  T
 181  -1187.6252013 -0.559042E-04  0.129E-02    0.02       1.0  T
 182  -1187.6252335 -0.322302E-04  0.125E-02    0.02       1.0  T
 183  -1187.6252825 -0.489757E-04  0.118E-02    0.02       1.0  T
 184  -1187.6253209 -0.383544E-04  0.109E-02    0.02       1.0  T
 185  -1187.6253488 -0.278960E-04  0.103E-02    0.02       1.0  T
 186  -1187.6253651 -0.163320E-04  0.987E-03    0.02       1.0  T
 187  -1187.6253814 -0.162474E-04  0.944E-03    0.02       1.0  T
 188  -1187.6254087 -0.273335E-04  0.879E-03    0.02       1.0  T
 189  -1187.6254243 -0.156482E-04  0.822E-03    0.02       1.0  T
 190  -1187.6254355 -0.111170E-04  0.779E-03    0.02       1.0  T
 191  -1187.6254518 -0.163451E-04  0.729E-03    0.02       1.0  T
 192  -1187.6254701 -0.183293E-04  0.673E-03    0.02       1.0  T
 193  -1187.6254824 -0.122513E-04  0.636E-03    0.02       1.0  T
 194  -1187.6254995 -0.171288E-04  0.584E-03    0.02       1.0  T
 195  -1187.6255180 -0.184833E-04  0.525E-03    0.02       1.0  T
 196  -1187.6255302 -0.121885E-04  0.475E-03    0.02       1.0  T
 197  -1187.6255415 -0.113286E-04  0.424E-03    0.02       1.0  T
 198  -1187.6255494 -0.789110E-05  0.380E-03    0.02       1.1  T
 199  -1187.6255590 -0.956521E-05  0.313E-03    0.02       1.3  T
 200  -1187.6255638 -0.486540E-05  0.279E-03    0.02       1.5  T
 201  -1187.6255681 -0.424087E-05  0.239E-03    0.02       1.7  T
 202  -1187.6255710 -0.289733E-05  0.213E-03    0.02       1.9  T
 203  -1187.6255739 -0.292090E-05  0.184E-03    0.02       2.2  T
 204  -1187.6255761 -0.222367E-05  0.162E-03    0.02       2.5  T
 205  -1187.6255789 -0.281412E-05  0.134E-03    0.02       3.0  T
 206  -1187.6255806 -0.167243E-05  0.108E-03    0.02       3.8  T
 207  -1187.6255819 -0.126057E-05  0.874E-04    0.02       4.6  T
 208  -1187.6255824 -0.539714E-06  0.769E-04    0.02       5.3  T
 209  -1187.6255829 -0.455285E-06  0.669E-04    0.02       6.1  T
 210  -1187.6255831 -0.246685E-06  0.602E-04    0.02       6.8  T
 211  -1187.6255833 -0.248973E-06  0.531E-04    0.02       7.7  T
 212  -1187.6255836 -0.262329E-06  0.428E-04    0.02       9.5  T
 213  -1187.6255837 -0.104094E-06  0.372E-04    0.02      10.9  T
 214  -1187.6255838 -0.579298E-07  0.337E-04    0.02      12.0  T
 215  -1187.6255838 -0.559310E-07  0.300E-04    0.02      13.5  T
 216  -1187.6255839 -0.351847E-07  0.271E-04    0.02      15.0  T
 217  -1187.6255839 -0.333869E-07  0.234E-04    0.02      17.4  T
 218  -1187.6255839 -0.127807E-07  0.213E-04    0.02      19.1  T
 219  -1187.6255839 -0.933551E-08  0.194E-04    0.02      20.9  T
 220  -1187.6255839 -0.664500E-08  0.177E-04    0.02      22.9  T

   *** convergence criteria satisfied after 220 iterations ***

         #    Occupation            Energy/Eh            Energy/eV
      -------------------------------------------------------------
         1        2.0000           -0.9205521             -25.0495
       ...           ...                  ...                  ...
      1023        1.9863           -0.3847612             -10.4699
      1024        1.9846           -0.3846502             -10.4669
      1025        1.9827           -0.3845401             -10.4639
      1026        1.9806           -0.3844278             -10.4608
      1027        1.9763           -0.3842351             -10.4556
      1028        1.9577           -0.3836762             -10.4404
      1029        1.2510           -0.3805215             -10.3545 (HOMO)
      1030        0.8433           -0.3797340             -10.3331 (LUMO)
      1031        0.0219           -0.3757565             -10.2249
      1032        0.0060           -0.3745109             -10.1910
      1033        0.0033           -0.3739596             -10.1760
      1034        0.0020           -0.3734938             -10.1633
       ...           ...                  ...                  ...
      2096                          8.7120964             237.0682
      -------------------------------------------------------------
                  HL-Gap            0.0007876 Eh            0.0214 eV
             Fermi-level           -0.3800341 Eh          -10.3413 eV

 SCC (total)                   0 d,  0 h,  7 min, 27.570 sec
 SCC setup                      ...        0 min,  0.018 sec (  0.004%)
 Dispersion                     ...        0 min,  0.044 sec (  0.010%)
 classical contributions        ...        0 min,  0.001 sec (  0.000%)
 integral evaluation            ...        0 min,  0.312 sec (  0.070%)
 iterations                     ...        7 min, 26.492 sec ( 99.759%)
 molecular gradient             ...        0 min,  0.440 sec (  0.098%)
 printout                       ...        0 min,  0.262 sec (  0.059%)

         :::::::::::::::::::::::::::::::::::::::::::::::::::::
         ::                     SUMMARY                     ::
         :::::::::::::::::::::::::::::::::::::::::::::::::::::
         :: total energy           -1159.936339485312 Eh    ::
         :: gradient norm             11.242627419181 Eh/a0 ::
         :: HOMO-LUMO gap              0.021430893222 eV    ::
         ::.................................................::
         :: SCC energy             -1187.625583926058 Eh    ::
         :: -> electrostatic           2.157913722092 Eh    ::
         :: repulsion energy          28.195200225975 Eh    ::
         :: dispersion energy         -0.505955785229 Eh    ::
         :: halogen bond corr.         0.000000000000 Eh    ::
         :: add. restraining           0.000000000000 Eh    ::
         :: total charge              -0.000000000002 e     ::
         :::::::::::::::::::::::::::::::::::::::::::::::::::::

      ----------------------------------------------------------- 
     |                       L-ANC optimizer                     |
      ----------------------------------------------------------- 
          low memory version by Sebastian Ehlert

          ...................................................
          :                      SETUP                      :
          :.................................................:
          :   energy convergence        0.5000000E-05 Eh    :
          :   grad. convergence         0.1000000E-02 Eh/a0 :
          :   optimization log               true           :
          :   writing optlog all                1     steps :
          :   Hessian reset                    20     steps :
          :   maximium step len.        1.0000000     a0    :
          :   LBFGS images                     20           :
          ...................................................
 * calculating model hessian...
Using Lindh-Hessian (1995)
 Shifting diagonal of input Hessian by    1.0022434751372203E-002
 Lowest  eigenvalues of input Hessian
    0.010000    0.010001    0.010015    0.010016    0.010016    0.010017
    0.010018    0.010018    0.010019    0.010020    0.010020    0.010021
    0.010021    0.010022    0.010022    0.010022    0.000000    0.000000
 Highest eigenvalues
    4.581902    4.581903    4.581905    4.581905    4.581906    4.581907


........................................................................
.............................. CYCLE    1 ..............................
........................................................................
   1  -1187.5714660 -0.118757E+04  0.367E-01    0.05       0.0  T
   2  -1185.5946576  0.197681E+01  0.816E-01    0.03       1.0  T
   3  -1183.8199342  0.177472E+01  0.953E-01    0.15       1.0  T
   4  -1187.1575418 -0.333761E+01  0.469E-01    0.21       1.0  T
   5  -1187.6159019 -0.458360E+00  0.226E-01    0.15       1.0  T
   6  -1187.6358408 -0.199390E-01  0.200E-01    0.18       1.0  T
   7  -1187.6858724 -0.500315E-01  0.157E-01    0.08       1.0  T
   8  -1187.7551114 -0.692390E-01  0.614E-02    0.03       1.0  T
   9  -1187.7386456  0.164658E-01  0.973E-02    0.06       1.0  T
  10  -1187.7173626  0.212830E-01  0.121E-01    0.08       1.0  T
  11  -1187.7362748 -0.189122E-01  0.923E-02    0.06       1.0  T
  12  -1187.7612681 -0.249933E-01  0.423E-02    0.01       1.0  T
  13  -1187.7609144  0.353759E-03  0.441E-02    0.01       1.0  T
  14  -1187.7567584  0.415596E-02  0.609E-02    0.01       1.0  T
  15  -1187.7566777  0.806638E-04  0.580E-02    0.01       1.0  T
  16  -1187.7616929 -0.501516E-02  0.397E-02    0.00       1.0  T
  17  -1187.7580488  0.364408E-02  0.532E-02    0.01       1.0  T
  18  -1187.7598659 -0.181704E-02  0.453E-02    0.01       1.0  T
  19  -1187.7638025 -0.393665E-02  0.212E-02    0.00       1.0  T
  20  -1187.7645691 -0.766633E-03  0.940E-03    0.01       1.0  T
  21  -1187.7646670 -0.978959E-04  0.568E-03    0.01       1.0  T
  22  -1187.7647338 -0.667564E-04  0.118E-03    0.01       3.4  T
  23  -1187.7647352 -0.139627E-05  0.613E-04    0.01       6.6  T
  24  -1187.7647354 -0.236826E-06  0.576E-04    0.01       7.0  T
  25  -1187.7647358 -0.406986E-06  0.390E-04    0.01      10.4  T
  26  -1187.7647362 -0.367427E-06  0.610E-05    0.01      66.6  T
  27  -1187.7647362 -0.642194E-08  0.321E-05    0.01     126.4  T
     SCC iter.                  ...        0 min, 55.350 sec
     gradient                   ...        0 min,  0.436 sec
 * total energy  : -1165.6589322 Eh     change       -0.5722593E+01 Eh
   gradient norm :     4.0295011 Eh/a0  converged?    E=F G=F D=F
   step length   :     0.8316059 a0

........................................................................
.............................. CYCLE    2 ..............................
........................................................................
   1  -1187.8611200 -0.118786E+04  0.539E-02    0.00       0.0  T
   2  -1187.8032411  0.578789E-01  0.152E-01    0.10       1.0  T
   3  -1187.7374478  0.657933E-01  0.197E-01    0.15       1.0  T
   4  -1187.8164344 -0.789866E-01  0.118E-01    0.08       1.0  T
   5  -1187.8586307 -0.421963E-01  0.450E-02    0.01       1.0  T
   6  -1187.8476317  0.109990E-01  0.671E-02    0.05       1.0  T
   7  -1187.8593027 -0.116710E-01  0.334E-02    0.01       1.0  T
   8  -1187.8637986 -0.449585E-02  0.892E-03    0.01       1.0  T
   9  -1187.8635754  0.223153E-03  0.107E-02    0.01       1.0  T
  10  -1187.8639705 -0.395054E-03  0.258E-03    0.01       1.6  T
  11  -1187.8639950 -0.244857E-04  0.528E-04    0.01       7.7  T
  12  -1187.8639956 -0.628238E-06  0.292E-04    0.01      13.9  T
  13  -1187.8639957 -0.965031E-07  0.190E-04    0.01      21.4  T
  14  -1187.8639956  0.129867E-06  0.224E-04    0.01      18.1  T
  15  -1187.8639957 -0.142193E-06  0.124E-04    0.01      32.7  T
     SCC iter.                  ...        0 min, 30.445 sec
     gradient                   ...        0 min,  0.432 sec
 * total energy  : -1166.6488960 Eh     change       -0.9899638E+00 Eh
   gradient norm :     3.4066815 Eh/a0  converged?    E=F G=F D=F
   step length   :     4.8552329 a0

........................................................................
.............................. CYCLE    3 ..............................
........................................................................
   1  -1187.9624283 -0.118796E+04  0.436E-02    0.00       0.0  T
   2  -1187.9024878  0.599405E-01  0.144E-01    0.10       1.0  T
   3  -1187.8685445  0.339432E-01  0.166E-01    0.12       1.0  T
   4  -1187.9379489 -0.694043E-01  0.862E-02    0.06       1.0  T
   5  -1187.9626535 -0.247046E-01  0.304E-02    0.00       1.0  T
   6  -1187.9582985  0.435495E-02  0.398E-02    0.03       1.0  T
   7  -1187.9628109 -0.451237E-02  0.190E-02    0.01       1.0  T
   8  -1187.9641105 -0.129958E-02  0.917E-03    0.01       1.0  T
   9  -1187.9642839 -0.173425E-03  0.542E-03    0.01       1.0  T
  10  -1187.9643883 -0.104420E-03  0.811E-04    0.01       5.0  T
  11  -1187.9643910 -0.268888E-05  0.195E-04    0.01      20.8  T
  12  -1187.9643911 -0.538062E-07  0.967E-05    0.01      42.0  T
  13  -1187.9643911  0.100974E-07  0.879E-05    0.01      46.2  T
     SCC iter.                  ...        0 min, 26.373 sec
     gradient                   ...        0 min,  0.443 sec
 * total energy  : -1167.1822011 Eh     change       -0.5333051E+00 Eh
   gradient norm :     3.0441651 Eh/a0  converged?    E=F G=F D=F
   step length   :     8.5447691 a0

........................................................................
.............................. CYCLE    4 ..............................
........................................................................
   1  -1188.0205145 -0.118802E+04  0.325E-02    0.00       0.0  T
   2  -1187.9509466  0.695679E-01  0.145E-01    0.12       1.0  T
   3  -1187.9956719 -0.447253E-01  0.868E-02    0.05       1.0  T
   4  -1188.0042566 -0.858475E-02  0.689E-02    0.05       1.0  T
   5  -1188.0206393 -0.163827E-01  0.244E-02    0.00       1.0  T
   6  -1188.0211376 -0.498372E-03  0.126E-02    0.01       1.0  T
   7  -1188.0205685  0.569190E-03  0.162E-02    0.00       1.0  T
   8  -1188.0214982 -0.929780E-03  0.750E-03    0.01       1.0  T
   9  -1188.0216763 -0.178039E-03  0.310E-03    0.01       1.3  T
  10  -1188.0217116 -0.353441E-04  0.476E-04    0.01       8.5  T
  11  -1188.0217125 -0.908084E-06  0.125E-04    0.01      32.5  T
  12  -1188.0217125  0.112038E-07  0.105E-04    0.01      38.8  T
     SCC iter.                  ...        0 min, 24.365 sec
     gradient                   ...        0 min,  0.433 sec
 * total energy  : -1167.5167581 Eh     change       -0.3345570E+00 Eh
   gradient norm :     2.8232500 Eh/a0  converged?    E=F G=F D=F
   step length   :    19.0118335 a0

........................................................................
.............................. CYCLE    5 ..............................
........................................................................
   1  -1188.0510115 -0.118805E+04  0.280E-02    0.00       0.0  T
   2  -1188.0316853  0.193262E-01  0.796E-02    0.05       1.0  T
   3  -1188.0089197  0.227656E-01  0.106E-01    0.07       1.0  T
   4  -1188.0422733 -0.333536E-01  0.503E-02    0.04       1.0  T
   5  -1188.0511705 -0.889721E-02  0.213E-02    0.01       1.0  T
   6  -1188.0504412  0.729352E-03  0.166E-02    0.02       1.0  T
   7  -1188.0511882 -0.746998E-03  0.996E-03    0.00       1.0  T
   8  -1188.0515271 -0.338948E-03  0.560E-03    0.01       1.0  T
   9  -1188.0516625 -0.135434E-03  0.811E-04    0.01       5.0  T
  10  -1188.0516644 -0.188429E-05  0.149E-04    0.01      27.2  T
  11  -1188.0516644  0.325940E-08  0.126E-04    0.01      32.2  T
  12  -1188.0516645 -0.342297E-07  0.793E-05    0.01      51.2  T
     SCC iter.                  ...        0 min, 24.342 sec
     gradient                   ...        0 min,  0.435 sec
 * total energy  : -1167.7853823 Eh     change       -0.2686242E+00 Eh
   gradient norm :     2.6444887 Eh/a0  converged?    E=F G=F D=F
   step length   :    57.2112945 a0

........................................................................
.............................. CYCLE    6 ..............................
........................................................................
   1  -1188.0651616 -0.118807E+04  0.282E-02    0.00       0.0  T
   2  -1188.0555513  0.961029E-02  0.595E-02    0.04       1.0  T
   3  -1188.0107637  0.447876E-01  0.118E-01    0.09       1.0  T
   4  -1188.0621482 -0.513845E-01  0.321E-02    0.03       1.0  T
   5  -1188.0650997 -0.295151E-02  0.209E-02    0.00       1.0  T
   6  -1188.0642658  0.833872E-03  0.178E-02    0.02       1.0  T
   7  -1188.0654321 -0.116624E-02  0.829E-03    0.00       1.0  T
   8  -1188.0657157 -0.283642E-03  0.377E-03    0.01       1.1  T
   9  -1188.0657736 -0.578776E-04  0.109E-03    0.01       3.7  T
  10  -1188.0657782 -0.463480E-05  0.235E-04    0.01      17.3  T
  11  -1188.0657784 -0.204249E-06  0.101E-04    0.01      40.1  T
  12  -1188.0657785 -0.291304E-07  0.559E-05    0.01      72.6  T
     SCC iter.                  ...        0 min, 24.439 sec
     gradient                   ...        0 min,  0.432 sec
 * total energy  : -1168.0276017 Eh     change       -0.2422194E+00 Eh
   gradient norm :     2.4762417 Eh/a0  converged?    E=F G=F D=F
   step length   :    82.3695492 a0

........................................................................
.............................. CYCLE    7 ..............................
........................................................................
   1  -1188.0472058 -0.118805E+04  0.278E-02    0.01       0.0  T
   2  -1188.0435345  0.367127E-02  0.437E-02    0.03       1.0  T
   3  -1187.9934969  0.500376E-01  0.113E-01    0.09       1.0  T
   4  -1188.0429622 -0.494653E-01  0.350E-02    0.03       1.0  T
   5  -1188.0471889 -0.422671E-02  0.178E-02    0.00       1.0  T
   6  -1188.0470670  0.121957E-03  0.129E-02    0.01       1.0  T
   7  -1188.0475796 -0.512657E-03  0.717E-03    0.00       1.0  T
   8  -1188.0478083 -0.228693E-03  0.267E-03    0.01       1.5  T
   9  -1188.0478355 -0.272094E-04  0.907E-04    0.01       4.5  T
  10  -1188.0478390 -0.351848E-05  0.171E-04    0.01      23.8  T
  11  -1188.0478391 -0.107427E-06  0.483E-05    0.01      84.1  T
  12  -1188.0478391 -0.319551E-08  0.290E-05    0.01     139.9  T
     SCC iter.                  ...        0 min, 24.444 sec
     gradient                   ...        0 min,  0.443 sec
 * total energy  : -1168.2515318 Eh     change       -0.2239301E+00 Eh
   gradient norm :     2.3027597 Eh/a0  converged?    E=F G=F D=F
   step length   :    71.9846443 a0

........................................................................
.............................. CYCLE    8 ..............................
........................................................................
   1  -1187.9885977 -0.118799E+04  0.264E-02    0.01       0.0  T
   2  -1187.9801986  0.839913E-02  0.489E-02    0.04       1.0  T
   3  -1187.9262525  0.539461E-01  0.119E-01    0.10       1.0  T
   4  -1187.9868790 -0.606265E-01  0.247E-02    0.02       1.0  T
   5  -1187.9888596 -0.198059E-02  0.126E-02    0.01       1.0  T
   6  -1187.9886733  0.186319E-03  0.100E-02    0.01       1.0  T
   7  -1187.9889367 -0.263461E-03  0.638E-03    0.00       1.0  T
   8  -1187.9890945 -0.157802E-03  0.349E-03    0.01       1.2  T
   9  -1187.9891544 -0.598729E-04  0.452E-04    0.01       9.0  T
  10  -1187.9891551 -0.720504E-06  0.125E-04    0.01      32.4  T
  11  -1187.9891552 -0.361815E-07  0.446E-05    0.01      91.0  T
     SCC iter.                  ...        0 min, 22.327 sec
     gradient                   ...        0 min,  0.434 sec
 * total energy  : -1168.4608186 Eh     change       -0.2092868E+00 Eh
   gradient norm :     2.1220933 Eh/a0  converged?    E=F G=F D=F
   step length   :    49.8688182 a0

........................................................................
.............................. CYCLE    9 ..............................
........................................................................
   1  -1187.9390942 -0.118794E+04  0.284E-02    0.01       0.0  T
   2  -1187.9362982  0.279601E-02  0.378E-02    0.01       1.0  T
   3  -1187.8941046  0.421936E-01  0.995E-02    0.11       1.0  T
   4  -1187.9359228 -0.418182E-01  0.295E-02    0.01       1.0  T
   5  -1187.9390520 -0.312912E-02  0.151E-02    0.02       1.0  T
   6  -1187.9390582 -0.628043E-05  0.112E-02    0.02       1.0  T
   7  -1187.9390986 -0.403191E-04  0.109E-02    0.00       1.0  T
   8  -1187.9397118 -0.613268E-03  0.197E-03    0.01       2.1  T
   9  -1187.9397315 -0.196560E-04  0.439E-04    0.01       9.2  T
  10  -1187.9397322 -0.679470E-06  0.115E-04    0.01      35.2  T
  11  -1187.9397322 -0.291670E-07  0.444E-05    0.01      91.5  T
     SCC iter.                  ...        0 min, 22.316 sec
     gradient                   ...        0 min,  0.433 sec
 * total energy  : -1168.6589353 Eh     change       -0.1981167E+00 Eh
   gradient norm :     1.9359453 Eh/a0  converged?    E=F G=F D=F
   step length   :    25.1735177 a0

........................................................................
.............................. CYCLE   10 ..............................
........................................................................
   1  -1187.9091805 -0.118791E+04  0.292E-02    0.01       0.0  T
   2  -1187.8996360  0.954452E-02  0.522E-02    0.03       1.0  T
   3  -1187.8489904  0.506456E-01  0.114E-01    0.15       1.0  T
   4  -1187.9081026 -0.591122E-01  0.213E-02    0.02       1.0  T
   5  -1187.9096294 -0.152683E-02  0.930E-03    0.01       1.0  T
   6  -1187.9095368  0.926113E-04  0.929E-03    0.00       1.0  T
   7  -1187.9097928 -0.255941E-03  0.380E-03    0.01       1.1  T
   8  -1187.9097800  0.127768E-04  0.396E-03    0.01       1.0  T
   9  -1187.9098608 -0.808240E-04  0.100E-03    0.01       4.0  T
  10  -1187.9098662 -0.535249E-05  0.224E-04    0.01      18.1  T
  11  -1187.9098663 -0.192285E-06  0.918E-05    0.01      44.2  T
  12  -1187.9098664 -0.345726E-07  0.261E-05    0.01     155.7  T
     SCC iter.                  ...        0 min, 24.357 sec
     gradient                   ...        0 min,  0.435 sec
 * total energy  : -1168.8315535 Eh     change       -0.1726182E+00 Eh
   gradient norm :     1.7530201 Eh/a0  converged?    E=F G=F D=F
   step length   :    20.4220099 a0

........................................................................
.............................. CYCLE   11 ..............................
........................................................................
   1  -1187.9013571 -0.118790E+04  0.237E-02    0.01       0.0  T
   2  -1187.8882626  0.130946E-01  0.569E-02    0.03       1.0  T
   3  -1187.8615534  0.267092E-01  0.896E-02    0.11       1.0  T
   4  -1187.9017025 -0.401491E-01  0.100E-02    0.01       1.0  T
   5  -1187.9018577 -0.155194E-03  0.712E-03    0.01       1.0  T
   6  -1187.9019623 -0.104644E-03  0.400E-03    0.01       1.0  T
   7  -1187.9017399  0.222449E-03  0.675E-03    0.01       1.0  T
   8  -1187.9019765 -0.236629E-03  0.190E-03    0.01       2.1  T
   9  -1187.9019959 -0.193708E-04  0.530E-04    0.01       7.7  T
  10  -1187.9019971 -0.124561E-05  0.108E-04    0.01      37.5  T
  11  -1187.9019971 -0.188813E-07  0.626E-05    0.01      64.9  T
  12  -1187.9019971 -0.133675E-07  0.264E-05    0.01     153.9  T
     SCC iter.                  ...        0 min, 24.417 sec
     gradient                   ...        0 min,  0.436 sec
 * total energy  : -1168.9872290 Eh     change       -0.1556755E+00 Eh
   gradient norm :     1.5779508 Eh/a0  converged?    E=F G=F D=F
   step length   :    15.7668136 a0

........................................................................
.............................. CYCLE   12 ..............................
........................................................................
   1  -1187.9060613 -0.118791E+04  0.253E-02    0.02       0.0  T
   2  -1187.8964490  0.961230E-02  0.498E-02    0.03       1.0  T
   3  -1187.8634232  0.330259E-01  0.914E-02    0.12       1.0  T
   4  -1187.9066361 -0.432129E-01  0.709E-03    0.02       1.0  T
   5  -1187.9065529  0.831496E-04  0.687E-03    0.02       1.0  T
   6  -1187.9065593 -0.638853E-05  0.595E-03    0.01       1.0  T
   7  -1187.9066196 -0.602471E-04  0.384E-03    0.01       1.1  T
   8  -1187.9066783 -0.587519E-04  0.202E-03    0.02       2.0  T
   9  -1187.9066996 -0.212907E-04  0.625E-04    0.02       6.5  T
  10  -1187.9067014 -0.184222E-05  0.222E-04    0.01      18.3  T
  11  -1187.9067017 -0.274543E-06  0.685E-05    0.01      59.3  T
  12  -1187.9067017 -0.160044E-07  0.411E-05    0.01      98.9  T
     SCC iter.                  ...        0 min, 24.360 sec
     gradient                   ...        0 min,  0.432 sec
 * total energy  : -1169.1221537 Eh     change       -0.1349247E+00 Eh
   gradient norm :     1.4071313 Eh/a0  converged?    E=F G=F D=F
   step length   :    14.4078312 a0

........................................................................
.............................. CYCLE   13 ..............................
........................................................................
   1  -1187.8973157 -0.118790E+04  0.217E-02    0.02       0.0  T
   2  -1187.8892021  0.811354E-02  0.431E-02    0.03       1.0  T
   3  -1187.8659892  0.232129E-01  0.767E-02    0.10       1.0  T
   4  -1187.8977554 -0.317662E-01  0.661E-03    0.02       1.0  T
   5  -1187.8977409  0.145516E-04  0.563E-03    0.02       1.0  T
   6  -1187.8977833 -0.424563E-04  0.372E-03    0.02       1.1  T
   7  -1187.8976895  0.938587E-04  0.463E-03    0.02       1.0  T
   8  -1187.8978138 -0.124371E-03  0.132E-03    0.02       3.1  T
   9  -1187.8978218 -0.794465E-05  0.670E-04    0.02       6.1  T
  10  -1187.8978243 -0.250616E-05  0.906E-05    0.02      44.8  T
  11  -1187.8978243 -0.163191E-07  0.603E-05    0.02      67.3  T
  12  -1187.8978243 -0.837917E-08  0.381E-05    0.02     106.7  T
     SCC iter.                  ...        0 min, 24.450 sec
     gradient                   ...        0 min,  0.440 sec
 * total energy  : -1169.2344533 Eh     change       -0.1122996E+00 Eh
   gradient norm :     1.2538214 Eh/a0  converged?    E=F G=F D=F
   step length   :    18.8872315 a0

........................................................................
.............................. CYCLE   14 ..............................
........................................................................
   1  -1187.9121080 -0.118791E+04  0.213E-02    0.03       0.0  T
   2  -1187.9097568  0.235120E-02  0.283E-02    0.03       1.0  T
   3  -1187.8912634  0.184934E-01  0.618E-02    0.09       1.0  T
   4  -1187.9114900 -0.202266E-01  0.139E-02    0.03       1.0  T
   5  -1187.9122001 -0.710047E-03  0.896E-03    0.03       1.0  T
   6  -1187.9125279 -0.327801E-03  0.357E-03    0.03       1.1  T
   7  -1187.9125519 -0.240796E-04  0.237E-03    0.03       1.7  T
   8  -1187.9125646 -0.126596E-04  0.132E-03    0.03       3.1  T
   9  -1187.9125740 -0.945560E-05  0.294E-04    0.03      13.8  T
  10  -1187.9125742 -0.165735E-06  0.200E-04    0.03      20.3  T
  11  -1187.9125744 -0.220899E-06  0.569E-05    0.03      71.3  T
     SCC iter.                  ...        0 min, 22.645 sec
     gradient                   ...        0 min,  0.439 sec
 * total energy  : -1169.3328751 Eh     change       -0.9842186E-01 Eh
   gradient norm :     1.1178734 Eh/a0  converged?    E=F G=F D=F
   step length   :    19.3153722 a0

........................................................................
.............................. CYCLE   15 ..............................
........................................................................
   1  -1187.9026471 -0.118790E+04  0.213E-02    0.04       0.0  T
   2  -1187.9019084  0.738730E-03  0.206E-02    0.04       1.0  T
   3  -1187.8922504  0.965799E-02  0.434E-02    0.08       1.0  T
   4  -1187.9020759 -0.982556E-02  0.134E-02    0.04       1.0  T
   5  -1187.9029662 -0.890244E-03  0.587E-03    0.04       1.0  T
   6  -1187.9030504 -0.841978E-04  0.288E-03    0.04       1.4  T
   7  -1187.9030447  0.569103E-05  0.263E-03    0.04       1.5  T
   8  -1187.9030681 -0.233542E-04  0.139E-03    0.04       2.9  T
   9  -1187.9030789 -0.108558E-04  0.392E-04    0.04      10.4  T
  10  -1187.9030799 -0.100349E-05  0.138E-04    0.04      29.5  T
  11  -1187.9030800 -0.757191E-07  0.544E-05    0.04      74.7  T
  12  -1187.9030800 -0.615864E-08  0.352E-05    0.04     115.5  T
     SCC iter.                  ...        0 min, 24.212 sec
     gradient                   ...        0 min,  0.437 sec
 * total energy  : -1169.4191107 Eh     change       -0.8623562E-01 Eh
   gradient norm :     0.9858867 Eh/a0  converged?    E=F G=F D=F
   step length   :    15.6037660 a0

........................................................................
.............................. CYCLE   16 ..............................
........................................................................
   1  -1187.9016655 -0.118790E+04  0.226E-02    0.06       0.0  T
   2  -1187.8994399  0.222561E-02  0.271E-02    0.06       1.0  T
   3  -1187.8903783  0.906160E-02  0.456E-02    0.10       1.0  T
   4  -1187.9015429 -0.111646E-01  0.101E-02    0.06       1.0  T
   5  -1187.9017741 -0.231168E-03  0.829E-03    0.06       1.0  T
   6  -1187.9020769 -0.302773E-03  0.417E-03    0.06       1.0  T
   7  -1187.9021291 -0.522872E-04  0.218E-03    0.06       1.9  T
   8  -1187.9021439 -0.147528E-04  0.980E-04    0.06       4.1  T
   9  -1187.9021468 -0.290008E-05  0.478E-04    0.06       8.5  T
  10  -1187.9021478 -0.102809E-05  0.261E-04    0.06      15.6  T
  11  -1187.9021483 -0.428003E-06  0.628E-05    0.06      64.7  T
  12  -1187.9021483 -0.674800E-08  0.395E-05    0.06     102.8  T
     SCC iter.                  ...        0 min, 24.222 sec
     gradient                   ...        0 min,  0.466 sec
 * total energy  : -1169.4951382 Eh     change       -0.7602747E-01 Eh
   gradient norm :     0.8648559 Eh/a0  converged?    E=F G=F D=F
   step length   :    15.3892100 a0

........................................................................
.............................. CYCLE   17 ..............................
........................................................................
   1  -1187.9088230 -0.118791E+04  0.221E-02    0.09       0.0  T
   2  -1187.9088380 -0.150388E-04  0.145E-02    0.09       1.0  T
   3  -1187.9084068  0.431204E-03  0.136E-02    0.09       1.0  T
   4  -1187.9078275  0.579328E-03  0.154E-02    0.08       1.0  T
   5  -1187.9090714 -0.124385E-02  0.566E-03    0.09       1.0  T
   6  -1187.9092025 -0.131151E-03  0.175E-03    0.09       2.3  T
   7  -1187.9092029 -0.395162E-06  0.994E-04    0.09       4.1  T
   8  -1187.9092050 -0.208571E-05  0.487E-04    0.09       8.3  T
   9  -1187.9092060 -0.103012E-05  0.232E-04    0.09      17.5  T
  10  -1187.9092063 -0.239219E-06  0.819E-05    0.09      49.6  T
  11  -1187.9092063 -0.118216E-07  0.488E-05    0.09      83.2  T
     SCC iter.                  ...        0 min, 22.589 sec
     gradient                   ...        0 min,  0.433 sec
 * total energy  : -1169.5609845 Eh     change       -0.6584626E-01 Eh
   gradient norm :     0.7582727 Eh/a0  converged?    E=F G=F D=F
   step length   :    13.6365033 a0

........................................................................
.............................. CYCLE   18 ..............................
........................................................................
   1  -1187.9053991 -0.118791E+04  0.224E-02    0.13       0.0  T
   2  -1187.9054914 -0.922933E-04  0.142E-02    0.12       1.0  T
   3  -1187.9056592 -0.167823E-03  0.741E-03    0.13       1.0  T
   4  -1187.9057220 -0.628130E-04  0.518E-03    0.12       1.0  T
   5  -1187.9057012  0.207822E-04  0.428E-03    0.13       1.0  T
   6  -1187.9057516 -0.503440E-04  0.266E-03    0.12       1.5  T
   7  -1187.9057773 -0.257229E-04  0.105E-03    0.12       3.9  T
   8  -1187.9057793 -0.200277E-05  0.662E-04    0.12       6.1  T
   9  -1187.9057813 -0.201139E-05  0.169E-04    0.12      24.0  T
  10  -1187.9057814 -0.677135E-07  0.798E-05    0.12      50.9  T
  11  -1187.9057814 -0.128459E-07  0.380E-05    0.12     107.0  T
     SCC iter.                  ...        0 min, 22.593 sec
     gradient                   ...        0 min,  0.436 sec
 * total energy  : -1169.6171404 Eh     change       -0.5615591E-01 Eh
   gradient norm :     0.6623512 Eh/a0  converged?    E=F G=F D=F
   step length   :    12.5947581 a0

........................................................................
.............................. CYCLE   19 ..............................
........................................................................
   1  -1187.9169658 -0.118792E+04  0.219E-02    0.17       0.0  T
   2  -1187.9170452 -0.794395E-04  0.145E-02    0.17       1.0  T
   3  -1187.9172447 -0.199438E-03  0.663E-03    0.17       1.0  T
   4  -1187.9172964 -0.517380E-04  0.454E-03    0.17       1.0  T
   5  -1187.9173174 -0.209560E-04  0.278E-03    0.17       1.5  T
   6  -1187.9173267 -0.928310E-05  0.142E-03    0.17       2.9  T
   7  -1187.9173313 -0.465795E-05  0.755E-04    0.17       5.4  T
   8  -1187.9173332 -0.185262E-05  0.253E-04    0.17      16.1  T
   9  -1187.9173333 -0.128598E-06  0.104E-04    0.17      39.1  T
  10  -1187.9173333 -0.178995E-07  0.443E-05    0.17      91.7  T
     SCC iter.                  ...        0 min, 20.581 sec
     gradient                   ...        0 min,  0.434 sec
 * total energy  : -1169.6671442 Eh     change       -0.5000379E-01 Eh
   gradient norm :     0.5739076 Eh/a0  converged?    E=F G=F D=F
   step length   :    12.1200883 a0

........................................................................
.............................. CYCLE   20 ..............................
........................................................................
   1  -1187.9285557 -0.118793E+04  0.198E-02    0.23       0.0  T
   2  -1187.9286448 -0.890874E-04  0.118E-02    0.22       1.0  T
   3  -1187.9287645 -0.119660E-03  0.591E-03    0.22       1.0  T
   4  -1187.9288088 -0.443903E-04  0.385E-03    0.22       1.1  T
   5  -1187.9288325 -0.236421E-04  0.200E-03    0.22       2.0  T
   6  -1187.9288365 -0.404455E-05  0.723E-04    0.22       5.6  T
   7  -1187.9288370 -0.487661E-06  0.335E-04    0.22      12.1  T
   8  -1187.9288373 -0.251149E-06  0.136E-04    0.22      29.9  T
   9  -1187.9288373 -0.377484E-07  0.499E-05    0.22      81.4  T
     SCC iter.                  ...        0 min, 18.649 sec
     gradient                   ...        0 min,  0.462 sec
 * total energy  : -1169.7095187 Eh     change       -0.4237451E-01 Eh
   gradient norm :     0.4894759 Eh/a0  converged?    E=F G=F D=F
   step length   :     9.4393721 a0
 * RMSD in coord.:     0.6417026 a0     energy gain  -0.9773179E+01 Eh
 * calculating model hessian...
Using Lindh-Hessian (1995)
 Shifting diagonal of input Hessian by    1.0004075332071807E-002
 Lowest  eigenvalues of input Hessian
    0.010000    0.010001    0.010001    0.010002    0.010003    0.010003
    0.010003    0.010004    0.010004    0.000000    0.000000    0.000000
    0.000000    0.000000    0.000000    0.010004    0.010004    0.010005
 Highest eigenvalues
    3.044741    3.044893    3.044968    3.047794    3.051352    3.056607


........................................................................
.............................. CYCLE   21 ..............................
........................................................................
   1  -1188.0895010 -0.118809E+04  0.451E-02    0.36       0.0  T
   2  -1188.0898252 -0.324198E-03  0.354E-02    0.36       1.0  T
   3  -1188.0908371 -0.101193E-02  0.118E-02    0.35       1.0  T
   4  -1188.0907843  0.528427E-04  0.117E-02    0.36       1.0  T
   5  -1188.0909522 -0.167856E-03  0.657E-03    0.36       1.0  T
   6  -1188.0909966 -0.443919E-04  0.147E-03    0.36       2.8  T
   7  -1188.0909979 -0.133629E-05  0.580E-04    0.36       7.0  T
   8  -1188.0909984 -0.479856E-06  0.206E-04    0.36      19.7  T
   9  -1188.0909984 -0.641019E-07  0.730E-05    0.36      55.7  T
  10  -1188.0909984 -0.631189E-08  0.407E-05    0.36      99.9  T
     SCC iter.                  ...        0 min, 20.801 sec
     gradient                   ...        0 min,  0.441 sec
 * total energy  : -1169.8108008 Eh     change       -0.1012821E+00 Eh
   gradient norm :     0.2097613 Eh/a0  converged?    E=F G=F D=F
   step length   :     0.4549935 a0

........................................................................
.............................. CYCLE   22 ..............................
........................................................................
   1  -1188.1484503 -0.118815E+04  0.299E-02    0.49       0.0  T
   2  -1188.1486518 -0.201532E-03  0.208E-02    0.49       1.0  T
   3  -1188.1489247 -0.272889E-03  0.869E-03    0.49       1.0  T
   4  -1188.1489191  0.557897E-05  0.691E-03    0.49       1.0  T
   5  -1188.1489429 -0.237797E-04  0.402E-03    0.49       1.0  T
   6  -1188.1489694 -0.265102E-04  0.769E-04    0.49       5.3  T
   7  -1188.1489702 -0.759983E-06  0.305E-04    0.49      13.3  T
   8  -1188.1489703 -0.128318E-06  0.116E-04    0.49      34.9  T
   9  -1188.1489703 -0.177597E-07  0.382E-05    0.49     106.5  T
     SCC iter.                  ...        0 min, 18.171 sec
     gradient                   ...        0 min,  0.432 sec
 * total energy  : -1169.8631941 Eh     change       -0.5239334E-01 Eh
   gradient norm :     0.1211931 Eh/a0  converged?    E=F G=F D=F
   step length   :     1.8370692 a0

........................................................................
.............................. CYCLE   23 ..............................
........................................................................
   1  -1188.2024615 -0.118820E+04  0.206E-02    0.59       0.0  T
   2  -1188.2025711 -0.109601E-03  0.129E-02    0.59       1.0  T
   3  -1188.2026939 -0.122760E-03  0.465E-03    0.59       1.0  T
   4  -1188.2027026 -0.870612E-05  0.324E-03    0.59       1.3  T
   5  -1188.2027054 -0.283850E-05  0.183E-03    0.59       2.2  T
   6  -1188.2027097 -0.422313E-05  0.581E-04    0.59       7.0  T
   7  -1188.2027101 -0.433872E-06  0.194E-04    0.59      20.9  T
   8  -1188.2027101 -0.422560E-07  0.816E-05    0.59      49.8  T
     SCC iter.                  ...        0 min, 16.295 sec
     gradient                   ...        0 min,  0.436 sec
 * total energy  : -1169.8863330 Eh     change       -0.2313894E-01 Eh
   gradient norm :     0.0774947 Eh/a0  converged?    E=F G=F D=F
   step length   :     2.7062962 a0

........................................................................
.............................. CYCLE   24 ..............................
........................................................................
   1  -1188.2117536 -0.118821E+04  0.166E-02    0.68       0.0  T
   2  -1188.2118135 -0.598904E-04  0.104E-02    0.68       1.0  T
   3  -1188.2118777 -0.642642E-04  0.467E-03    0.68       1.0  T
   4  -1188.2118843 -0.656232E-05  0.284E-03    0.68       1.4  T
   5  -1188.2118861 -0.182428E-05  0.119E-03    0.68       3.4  T
   6  -1188.2118884 -0.223763E-05  0.422E-04    0.68       9.6  T
   7  -1188.2118887 -0.301285E-06  0.124E-04    0.68      32.8  T
   8  -1188.2118887 -0.141451E-07  0.614E-05    0.68      66.1  T
     SCC iter.                  ...        0 min, 16.417 sec
     gradient                   ...        0 min,  0.442 sec
 * total energy  : -1169.9032300 Eh     change       -0.1689700E-01 Eh
   gradient norm :     0.0712708 Eh/a0  converged?    E=F G=F D=F
   step length   :     2.5546840 a0

........................................................................
.............................. CYCLE   25 ..............................
........................................................................
   1  -1188.2357682 -0.118824E+04  0.886E-03    0.73       0.0  T
   2  -1188.2357887 -0.204555E-04  0.502E-03    0.72       1.0  T
   3  -1188.2357937 -0.499970E-05  0.280E-03    0.73       1.4  T
   4  -1188.2357973 -0.363599E-05  0.247E-03    0.73       1.6  T
   5  -1188.2358040 -0.667582E-05  0.573E-04    0.73       7.1  T
   6  -1188.2358043 -0.340779E-06  0.218E-04    0.73      18.6  T
   7  -1188.2358044 -0.550147E-07  0.677E-05    0.73      60.0  T
   8  -1188.2358044 -0.254340E-08  0.365E-05    0.73     111.2  T
     SCC iter.                  ...        0 min, 16.609 sec
     gradient                   ...        0 min,  0.436 sec
 * total energy  : -1169.9141440 Eh     change       -0.1091396E-01 Eh
   gradient norm :     0.0723123 Eh/a0  converged?    E=F G=F D=F
   step length   :     1.8215626 a0

........................................................................
.............................. CYCLE   26 ..............................
........................................................................
   1  -1188.2449773 -0.118824E+04  0.931E-03    0.75       0.0  T
   2  -1188.2449929 -0.155275E-04  0.566E-03    0.75       1.0  T
   3  -1188.2450004 -0.755016E-05  0.293E-03    0.75       1.4  T
   4  -1188.2449977  0.268920E-05  0.242E-03    0.75       1.7  T
   5  -1188.2450052 -0.743365E-05  0.718E-04    0.75       5.7  T
   6  -1188.2450058 -0.646526E-06  0.175E-04    0.75      23.2  T
   7  -1188.2450058 -0.404114E-07  0.569E-05    0.75      71.3  T
     SCC iter.                  ...        0 min, 14.423 sec
     gradient                   ...        0 min,  0.436 sec
 * total energy  : -1169.9229521 Eh     change       -0.8808079E-02 Eh
   gradient norm :     0.0764330 Eh/a0  converged?    E=F G=F D=F
   step length   :     3.9376468 a0

........................................................................
.............................. CYCLE   27 ..............................
........................................................................
   1  -1188.2502289 -0.118825E+04  0.639E-03    0.76       0.0  T
   2  -1188.2502369 -0.808221E-05  0.396E-03    0.76       1.0  T
   3  -1188.2502427 -0.576504E-05  0.193E-03    0.76       2.1  T
   4  -1188.2502427  0.791420E-08  0.120E-03    0.76       3.4  T
   5  -1188.2502436 -0.879603E-06  0.397E-04    0.76      10.2  T
   6  -1188.2502438 -0.226750E-06  0.140E-04    0.76      29.0  T
   7  -1188.2502438 -0.404386E-07  0.380E-05    0.76     106.8  T
     SCC iter.                  ...        0 min, 14.667 sec
     gradient                   ...        0 min,  0.435 sec
 * total energy  : -1169.9307587 Eh     change       -0.7806591E-02 Eh
   gradient norm :     0.0667064 Eh/a0  converged?    E=F G=F D=F
   step length   :     3.1648166 a0

........................................................................
.............................. CYCLE   28 ..............................
........................................................................
   1  -1188.2518300 -0.118825E+04  0.553E-03    0.76       0.0  T
   2  -1188.2518346 -0.455129E-05  0.422E-03    0.76       1.0  T
   3  -1188.2518444 -0.978352E-05  0.172E-03    0.76       2.4  T
   4  -1188.2518436  0.751238E-06  0.116E-03    0.76       3.5  T
   5  -1188.2518446 -0.955184E-06  0.482E-04    0.76       8.4  T
   6  -1188.2518450 -0.392678E-06  0.990E-05    0.76      41.0  T
   7  -1188.2518450 -0.148045E-07  0.318E-05    0.76     127.9  T
     SCC iter.                  ...        0 min, 14.476 sec
     gradient                   ...        0 min,  0.434 sec
 * total energy  : -1169.9371665 Eh     change       -0.6407788E-02 Eh
   gradient norm :     0.0587774 Eh/a0  converged?    E=F G=F D=F
   step length   :     3.9100634 a0

........................................................................
.............................. CYCLE   29 ..............................
........................................................................
   1  -1188.2505948 -0.118825E+04  0.488E-03    0.75       0.0  T
   2  -1188.2505978 -0.295008E-05  0.376E-03    0.75       1.1  T
   3  -1188.2506072 -0.947623E-05  0.145E-03    0.75       2.8  T
   4  -1188.2506061  0.113030E-05  0.120E-03    0.75       3.4  T
   5  -1188.2506077 -0.162334E-05  0.509E-04    0.75       8.0  T
   6  -1188.2506080 -0.298410E-06  0.898E-05    0.75      45.2  T
   7  -1188.2506080 -0.925456E-08  0.298E-05    0.75     136.4  T
     SCC iter.                  ...        0 min, 14.509 sec
     gradient                   ...        0 min,  0.435 sec
 * total energy  : -1169.9430164 Eh     change       -0.5849978E-02 Eh
   gradient norm :     0.0503265 Eh/a0  converged?    E=F G=F D=F
   step length   :     4.9915933 a0

........................................................................
.............................. CYCLE   30 ..............................
........................................................................
   1  -1188.2572526 -0.118826E+04  0.417E-03    0.74       0.0  T
   2  -1188.2572557 -0.317274E-05  0.329E-03    0.74       1.2  T
   3  -1188.2572644 -0.865964E-05  0.120E-03    0.74       3.4  T
   4  -1188.2572638  0.579835E-06  0.956E-04    0.74       4.2  T
   5  -1188.2572647 -0.865408E-06  0.427E-04    0.74       9.5  T
   6  -1188.2572649 -0.227193E-06  0.936E-05    0.74      43.4  T
   7  -1188.2572649 -0.118155E-07  0.314E-05    0.74     129.2  T
     SCC iter.                  ...        0 min, 14.711 sec
     gradient                   ...        0 min,  0.434 sec
 * total energy  : -1169.9480717 Eh     change       -0.5055209E-02 Eh
   gradient norm :     0.0457124 Eh/a0  converged?    E=F G=F D=F
   step length   :     3.9989259 a0

........................................................................
.............................. CYCLE   31 ..............................
........................................................................
   1  -1188.2617091 -0.118826E+04  0.390E-03    0.73       0.0  T
   2  -1188.2617133 -0.419888E-05  0.301E-03    0.73       1.3  T
   3  -1188.2617215 -0.819367E-05  0.984E-04    0.73       4.1  T
   4  -1188.2617213  0.154437E-06  0.784E-04    0.73       5.2  T
   5  -1188.2617217 -0.394438E-06  0.368E-04    0.73      11.0  T
   6  -1188.2617219 -0.160640E-06  0.109E-04    0.73      37.4  T
   7  -1188.2617219 -0.188691E-07  0.320E-05    0.73     127.1  T
     SCC iter.                  ...        0 min, 14.546 sec
     gradient                   ...        0 min,  0.436 sec
 * total energy  : -1169.9525970 Eh     change       -0.4525379E-02 Eh
   gradient norm :     0.0418710 Eh/a0  converged?    E=F G=F D=F
   step length   :     4.6274066 a0

........................................................................
.............................. CYCLE   32 ..............................
........................................................................
   1  -1188.2662916 -0.118827E+04  0.390E-03    0.71       0.0  T
   2  -1188.2662959 -0.435734E-05  0.287E-03    0.71       1.4  T
   3  -1188.2663042 -0.826022E-05  0.961E-04    0.71       4.2  T
   4  -1188.2663042 -0.595548E-07  0.791E-04    0.71       5.1  T
   5  -1188.2663048 -0.588140E-06  0.346E-04    0.71      11.7  T
   6  -1188.2663049 -0.892496E-07  0.114E-04    0.71      35.5  T
   7  -1188.2663049 -0.186560E-07  0.341E-05    0.71     119.0  T
     SCC iter.                  ...        0 min, 14.550 sec
     gradient                   ...        0 min,  0.435 sec
 * total energy  : -1169.9565835 Eh     change       -0.3986454E-02 Eh
   gradient norm :     0.0370063 Eh/a0  converged?    E=F G=F D=F
   step length   :     4.6046636 a0

........................................................................
.............................. CYCLE   33 ..............................
........................................................................
   1  -1188.2718997 -0.118827E+04  0.357E-03    0.70       0.0  T
   2  -1188.2719049 -0.523468E-05  0.244E-03    0.70       1.7  T
   3  -1188.2719109 -0.595703E-05  0.898E-04    0.70       4.5  T
   4  -1188.2719111 -0.158590E-06  0.641E-04    0.70       6.3  T
   5  -1188.2719113 -0.241188E-06  0.299E-04    0.70      13.6  T
   6  -1188.2719114 -0.955808E-07  0.124E-04    0.70      32.7  T
   7  -1188.2719114 -0.255411E-07  0.326E-05    0.70     124.5  T
     SCC iter.                  ...        0 min, 14.492 sec
     gradient                   ...        0 min,  0.440 sec
 * total energy  : -1169.9602404 Eh     change       -0.3656879E-02 Eh
   gradient norm :     0.0355743 Eh/a0  converged?    E=F G=F D=F
   step length   :     5.6545285 a0

........................................................................
.............................. CYCLE   34 ..............................
........................................................................
   1  -1188.2779253 -0.118828E+04  0.329E-03    0.70       0.0  T
   2  -1188.2779303 -0.499757E-05  0.218E-03    0.70       1.9  T
   3  -1188.2779352 -0.496445E-05  0.838E-04    0.70       4.8  T
   4  -1188.2779355 -0.239892E-06  0.530E-04    0.70       7.7  T
   5  -1188.2779356 -0.961745E-07  0.251E-04    0.70      16.2  T
   6  -1188.2779356 -0.571031E-07  0.131E-04    0.70      31.1  T
   7  -1188.2779356 -0.300327E-07  0.324E-05    0.70     125.4  T
     SCC iter.                  ...        0 min, 14.530 sec
     gradient                   ...        0 min,  0.444 sec
 * total energy  : -1169.9635647 Eh     change       -0.3324299E-02 Eh
   gradient norm :     0.0359735 Eh/a0  converged?    E=F G=F D=F
   step length   :     4.7605310 a0

........................................................................
.............................. CYCLE   35 ..............................
........................................................................
   1  -1188.2820691 -0.118828E+04  0.310E-03    0.69       0.0  T
   2  -1188.2820737 -0.459602E-05  0.201E-03    0.69       2.0  T
   3  -1188.2820780 -0.426892E-05  0.836E-04    0.69       4.9  T
   4  -1188.2820782 -0.277639E-06  0.554E-04    0.69       7.3  T
   5  -1188.2820785 -0.218527E-06  0.261E-04    0.69      15.6  T
   6  -1188.2820785 -0.606158E-07  0.115E-04    0.69      35.3  T
   7  -1188.2820785 -0.191872E-07  0.308E-05    0.69     131.7  T
     SCC iter.                  ...        0 min, 14.534 sec
     gradient                   ...        0 min,  0.440 sec
 * total energy  : -1169.9666567 Eh     change       -0.3092074E-02 Eh
   gradient norm :     0.0360805 Eh/a0  converged?    E=F G=F D=F
   step length   :     6.2036926 a0

........................................................................
.............................. CYCLE   36 ..............................
........................................................................
   1  -1188.2858771 -0.118829E+04  0.272E-03    0.68       0.0  T
   2  -1188.2858815 -0.434791E-05  0.173E-03    0.69       2.3  T
   3  -1188.2858847 -0.321927E-05  0.733E-04    0.69       5.5  T
   4  -1188.2858849 -0.183752E-06  0.400E-04    0.69      10.1  T
   5  -1188.2858849 -0.287973E-07  0.167E-04    0.69      24.3  T
   6  -1188.2858849 -0.119776E-07  0.113E-04    0.69      36.1  T
     SCC iter.                  ...        0 min, 12.302 sec
     gradient                   ...        0 min,  0.432 sec
 * total energy  : -1169.9696367 Eh     change       -0.2979924E-02 Eh
   gradient norm :     0.0368551 Eh/a0  converged?    E=F G=F D=F
   step length   :     6.0684997 a0

........................................................................
.............................. CYCLE   37 ..............................
........................................................................
   1  -1188.2920825 -0.118829E+04  0.242E-03    0.68       0.0  T
   2  -1188.2920862 -0.366247E-05  0.156E-03    0.68       2.6  T
   3  -1188.2920886 -0.244717E-05  0.732E-04    0.68       5.6  T
   4  -1188.2920888 -0.156833E-06  0.415E-04    0.68       9.8  T
   5  -1188.2920888 -0.271648E-07  0.225E-04    0.68      18.1  T
   6  -1188.2920888 -0.670393E-07  0.105E-04    0.68      38.8  T
   7  -1188.2920889 -0.177420E-07  0.289E-05    0.68     140.4  T
     SCC iter.                  ...        0 min, 14.345 sec
     gradient                   ...        0 min,  0.435 sec
 * total energy  : -1169.9725021 Eh     change       -0.2865398E-02 Eh
   gradient norm :     0.0363885 Eh/a0  converged?    E=F G=F D=F
   step length   :     5.9922661 a0

........................................................................
.............................. CYCLE   38 ..............................
........................................................................
   1  -1188.2942414 -0.118829E+04  0.240E-03    0.68       0.0  T
   2  -1188.2942448 -0.342222E-05  0.160E-03    0.68       2.5  T
   3  -1188.2942472 -0.237190E-05  0.721E-04    0.68       5.6  T
   4  -1188.2942473 -0.939999E-07  0.421E-04    0.68       9.7  T
   5  -1188.2942473 -0.444434E-07  0.219E-04    0.68      18.6  T
   6  -1188.2942474 -0.759314E-07  0.965E-05    0.68      42.1  T
   7  -1188.2942474 -0.143348E-07  0.269E-05    0.68     151.1  T
     SCC iter.                  ...        0 min, 14.595 sec
     gradient                   ...        0 min,  0.433 sec
 * total energy  : -1169.9751817 Eh     change       -0.2679599E-02 Eh
   gradient norm :     0.0373923 Eh/a0  converged?    E=F G=F D=F
   step length   :     6.9787716 a0

........................................................................
.............................. CYCLE   39 ..............................
........................................................................
   1  -1188.2986649 -0.118830E+04  0.217E-03    0.68       0.0  T
   2  -1188.2986678 -0.288866E-05  0.143E-03    0.68       2.8  T
   3  -1188.2986696 -0.179893E-05  0.719E-04    0.68       5.6  T
   4  -1188.2986697 -0.110928E-06  0.410E-04    0.68       9.9  T
   5  -1188.2986698 -0.385980E-07  0.223E-04    0.68      18.2  T
   6  -1188.2986698 -0.781076E-07  0.914E-05    0.68      44.5  T
   7  -1188.2986699 -0.112507E-07  0.273E-05    0.68     148.6  T
     SCC iter.                  ...        0 min, 14.412 sec
     gradient                   ...        0 min,  0.434 sec
 * total energy  : -1169.9777776 Eh     change       -0.2595937E-02 Eh
   gradient norm :     0.0363803 Eh/a0  converged?    E=F G=F D=F
   step length   :     7.2362042 a0

........................................................................
.............................. CYCLE   40 ..............................
........................................................................
   1  -1188.3046653 -0.118830E+04  0.196E-03    0.69       0.0  T
   2  -1188.3046679 -0.257616E-05  0.126E-03    0.69       3.2  T
   3  -1188.3046691 -0.116019E-05  0.665E-04    0.69       6.1  T
   4  -1188.3046692 -0.919790E-07  0.393E-04    0.69      10.3  T
   5  -1188.3046692 -0.476332E-07  0.210E-04    0.69      19.3  T
   6  -1188.3046693 -0.741904E-07  0.806E-05    0.69      50.4  T
   7  -1188.3046693 -0.787236E-08  0.239E-05    0.69     170.3  T
     SCC iter.                  ...        0 min, 14.444 sec
     gradient                   ...        0 min,  0.434 sec
 * total energy  : -1169.9802761 Eh     change       -0.2498539E-02 Eh
   gradient norm :     0.0345695 Eh/a0  converged?    E=F G=F D=F
   step length   :     5.4314181 a0

........................................................................
.............................. CYCLE   41 ..............................
........................................................................
   1  -1188.3117453 -0.118831E+04  0.195E-03    0.69       0.0  T
   2  -1188.3117475 -0.212727E-05  0.125E-03    0.69       3.3  T
   3  -1188.3117483 -0.858611E-06  0.677E-04    0.69       6.0  T
   4  -1188.3117484 -0.657478E-07  0.436E-04    0.69       9.3  T
   5  -1188.3117485 -0.113299E-06  0.214E-04    0.69      19.0  T
   6  -1188.3117486 -0.754544E-07  0.687E-05    0.69      59.1  T
   7  -1188.3117486 -0.469413E-08  0.233E-05    0.69     174.2  T
     SCC iter.                  ...        0 min, 14.432 sec
     gradient                   ...        0 min,  0.483 sec
 * total energy  : -1169.9826367 Eh     change       -0.2360579E-02 Eh
   gradient norm :     0.0321417 Eh/a0  converged?    E=F G=F D=F
   step length   :     4.7130796 a0

........................................................................
.............................. CYCLE   42 ..............................
........................................................................
   1  -1188.3516976 -0.118835E+04  0.598E-03    0.71       0.0  T
   2  -1188.3517056 -0.797133E-05  0.321E-03    0.71       1.3  T
   3  -1188.3517090 -0.338590E-05  0.201E-03    0.71       2.0  T
   4  -1188.3517110 -0.201082E-05  0.128E-03    0.71       3.2  T
   5  -1188.3517125 -0.151982E-05  0.530E-04    0.71       7.7  T
   6  -1188.3517129 -0.406165E-06  0.115E-04    0.71      35.3  T
   7  -1188.3517129 -0.161308E-07  0.374E-05    0.71     108.7  T
     SCC iter.                  ...        0 min, 14.468 sec
     gradient                   ...        0 min,  0.436 sec
 * total energy  : -1169.9860369 Eh     change       -0.3400206E-02 Eh
   gradient norm :     0.0230397 Eh/a0  converged?    E=F G=F D=F
   step length   :     3.6842919 a0
 * RMSD in coord.:     0.7490135 a0     energy gain  -0.2765182E+00 Eh
 * calculating model hessian...
Using Lindh-Hessian (1995)
 Shifting diagonal of input Hessian by    1.0004013376837975E-002
 Lowest  eigenvalues of input Hessian
    0.010000    0.010001    0.010001    0.010002    0.010002    0.010003
    0.010003    0.010003    0.010003    0.010004    0.010004    0.010004
    0.010004    0.000000    0.000000    0.000000    0.000000    0.000000
 Highest eigenvalues
    3.061816    3.062031    3.062779    3.062944    3.063407    3.063520


........................................................................
.............................. CYCLE   43 ..............................
........................................................................
   1  -1188.3450144 -0.118835E+04  0.284E-03    0.71       0.0  T
   2  -1188.3450159 -0.148223E-05  0.205E-03    0.71       2.0  T
   3  -1188.3450185 -0.257664E-05  0.102E-03    0.71       4.0  T
   4  -1188.3450183  0.181588E-06  0.752E-04    0.71       5.4  T
   5  -1188.3450191 -0.831425E-06  0.266E-04    0.71      15.3  T
   6  -1188.3450192 -0.780856E-07  0.773E-05    0.71      52.6  T
   7  -1188.3450192 -0.712885E-08  0.206E-05    0.71     197.2  T
     SCC iter.                  ...        0 min, 14.439 sec
     gradient                   ...        0 min,  0.436 sec
 * total energy  : -1169.9867621 Eh     change       -0.7252275E-03 Eh
   gradient norm :     0.0171169 Eh/a0  converged?    E=F G=F D=F
   step length   :     0.3440765 a0

........................................................................
.............................. CYCLE   44 ..............................
........................................................................
   1  -1188.3295506 -0.118833E+04  0.496E-03    0.72       0.0  T
   2  -1188.3295562 -0.555332E-05  0.384E-03    0.72       1.1  T
   3  -1188.3295644 -0.821042E-05  0.159E-03    0.72       2.6  T
   4  -1188.3295634  0.983705E-06  0.123E-03    0.72       3.3  T
   5  -1188.3295647 -0.129827E-05  0.491E-04    0.72       8.3  T
   6  -1188.3295650 -0.352973E-06  0.132E-04    0.72      30.8  T
   7  -1188.3295651 -0.291573E-07  0.336E-05    0.72     120.9  T
     SCC iter.                  ...        0 min, 14.752 sec
     gradient                   ...        0 min,  0.438 sec
 * total energy  : -1169.9874991 Eh     change       -0.7369170E-03 Eh
   gradient norm :     0.0269594 Eh/a0  converged?    E=F G=F D=F
   step length   :     0.5590880 a0

........................................................................
.............................. CYCLE   45 ..............................
........................................................................
   1  -1188.3404622 -0.118834E+04  0.325E-03    0.72       0.0  T
[...]
   368   6 C      372   7 N                                       1.3627807
   371   6 C      372   7 N                                       1.3687133
   371   6 C      373   6 C                                       1.4007965
   374   6 C      375   6 C                                       1.3984333
   375   6 C      376   6 C                                       1.3828164
   376   6 C      377   6 C                                       1.3920025
   378   7 N      379   8 O                                       1.2042775
   378   7 N      380   8 O                                       1.2042206
   377   6 C      381   6 C                                       1.3919316
   374   6 C      382   6 C                                       1.3982653
   381   6 C      382   6 C                                       1.3830032
   373   6 C      383   6 C                                       1.3963889
   383   6 C      384   6 C                                       1.4523405
   384   6 C      385   6 C                                       1.3487594
   383   6 C      386   7 N                                       1.3610699
   385   6 C      387   6 C                                       1.4497829
   386   7 N      387   6 C                                       1.3483411
   387   6 C      388   6 C                                       1.4094798
   388   6 C      389   6 C                                       1.4086225
   389   6 C      390   6 C                                       1.4187453
   390   6 C      391   6 C                                       1.3680418
   391   6 C      392   6 C                                       1.4215865
   389   6 C      393   7 N                                       1.3627876
   392   6 C      393   7 N                                       1.3687151
   392   6 C      394   6 C                                       1.4007987
   395   6 C      396   6 C                                       1.3982618
   396   6 C      397   6 C                                       1.3830071
   397   6 C      398   6 C                                       1.3919308
   399   7 N      400   8 O                                       1.2042208
   399   7 N      401   8 O                                       1.2042763
   398   6 C      402   6 C                                       1.3920033
   395   6 C      403   6 C                                       1.3984330
   402   6 C      403   6 C                                       1.3828177
   394   6 C      404   6 C                                       1.3963907
   404   6 C      405   6 C                                       1.4523427
   405   6 C      406   6 C                                       1.3487633
   367   6 C      407   6 C                                       1.4094764
   406   6 C      407   6 C                                       1.4497881
   404   6 C      408   7 N                                       1.3610666
   407   6 C      408   7 N                                       1.3483448
   369   6 C      409   1 H                                       1.0779061
   370   6 C      410   1 H                                       1.0776509
   372   7 N      411   1 H                                       1.0145562
   375   6 C      412   1 H                                       1.0837089
   376   6 C      413   1 H                                       1.0833612
   381   6 C      414   1 H                                       1.0833711
   382   6 C      415   1 H                                       1.0837946
   384   6 C      416   1 H                                       1.0778184
   385   6 C      417   1 H                                       1.0780698
   390   6 C      418   1 H                                       1.0779017
   391   6 C      419   1 H                                       1.0776521
   393   7 N      420   1 H                                       1.0145566
   396   6 C      421   1 H                                       1.0837945
   397   6 C      422   1 H                                       1.0833713
   402   6 C      423   1 H                                       1.0833612
   403   6 C      424   1 H                                       1.0837082
   405   6 C      425   1 H                                       1.0778201
   406   6 C      426   1 H                                       1.0780730
   427   6 C      428   6 C                                       1.4086155
   428   6 C      429   6 C                                       1.4187618
   429   6 C      430   6 C                                       1.3680341
   430   6 C      431   6 C                                       1.4215878
   428   6 C      432   7 N                                       1.3627857
   431   6 C      432   7 N                                       1.3687228
   431   6 C      433   6 C                                       1.4007562
   434   6 C      435   6 C                                       1.3984170
   435   6 C      436   6 C                                       1.3828244
   436   6 C      437   6 C                                       1.3920032
   438   7 N      439   8 O                                       1.2042708
   438   7 N      440   8 O                                       1.2042089
   437   6 C      441   6 C                                       1.3919298
   434   6 C      442   6 C                                       1.3982540
   441   6 C      442   6 C                                       1.3830044
   433   6 C      443   6 C                                       1.3963836
   443   6 C      444   6 C                                       1.4523350
   444   6 C      445   6 C                                       1.3487649
   443   6 C      446   7 N                                       1.3610522
   445   6 C      447   6 C                                       1.4497778
   446   7 N      447   6 C                                       1.3483528
   447   6 C      448   6 C                                       1.4094514
   448   6 C      449   6 C                                       1.4086043
   449   6 C      450   6 C                                       1.4187343
   450   6 C      451   6 C                                       1.3680456
   451   6 C      452   6 C                                       1.4215842
   449   6 C      453   7 N                                       1.3627946
   452   6 C      453   7 N                                       1.3686878
   452   6 C      454   6 C                                       1.4008360
   455   6 C      456   6 C                                       1.3982848
   456   6 C      457   6 C                                       1.3829887
   457   6 C      458   6 C                                       1.3919360
   459   7 N      460   8 O                                       1.2042191
   459   7 N      461   8 O                                       1.2042762
   458   6 C      462   6 C                                       1.3920077
   455   6 C      463   6 C                                       1.3984218
   462   6 C      463   6 C                                       1.3828311
   454   6 C      464   6 C                                       1.3963640
   464   6 C      465   6 C                                       1.4523407
   465   6 C      466   6 C                                       1.3487644
   427   6 C      467   6 C                                       1.4095097
   466   6 C      467   6 C                                       1.4497911
   464   6 C      468   7 N                                       1.3611066
   467   6 C      468   7 N                                       1.3483214
   429   6 C      469   1 H                                       1.0779022
   430   6 C      470   1 H                                       1.0776540
   432   7 N      471   1 H                                       1.0145537
   435   6 C      472   1 H                                       1.0837084
   436   6 C      473   1 H                                       1.0833623
   441   6 C      474   1 H                                       1.0833717
   442   6 C      475   1 H                                       1.0837955
   444   6 C      476   1 H                                       1.0778197
   445   6 C      477   1 H                                       1.0780734
   450   6 C      478   1 H                                       1.0779071
   451   6 C      479   1 H                                       1.0776514
   453   7 N      480   1 H                                       1.0145541
   456   6 C      481   1 H                                       1.0837958
   457   6 C      482   1 H                                       1.0833716
   462   6 C      483   1 H                                       1.0833620
   463   6 C      484   1 H                                       1.0837090
   465   6 C      485   1 H                                       1.0778202
   466   6 C      486   1 H                                       1.0780698
   487   6 C      488   6 C                                       1.4085682
   488   6 C      489   6 C                                       1.4187681
   489   6 C      490   6 C                                       1.3680180
   490   6 C      491   6 C                                       1.4216228
   488   6 C      492   7 N                                       1.3628038
   491   6 C      492   7 N                                       1.3687123
   491   6 C      493   6 C                                       1.4007789
   494   6 C      495   6 C                                       1.3983696
   495   6 C      496   6 C                                       1.3828605
   496   6 C      497   6 C                                       1.3919983
   498   7 N      499   8 O                                       1.2042857
   498   7 N      500   8 O                                       1.2042155
   497   6 C      501   6 C                                       1.3919361
   494   6 C      502   6 C                                       1.3983029
   501   6 C      502   6 C                                       1.3829720
   493   6 C      503   6 C                                       1.3963996
   503   6 C      504   6 C                                       1.4523437
   504   6 C      505   6 C                                       1.3487839
   503   6 C      506   7 N                                       1.3610582
   505   6 C      507   6 C                                       1.4497471
   506   7 N      507   6 C                                       1.3483872
   507   6 C      508   6 C                                       1.4094404
   508   6 C      509   6 C                                       1.4086561
   509   6 C      510   6 C                                       1.4187287
   510   6 C      511   6 C                                       1.3680456
   511   6 C      512   6 C                                       1.4215614
   509   6 C      513   7 N                                       1.3628333
   512   6 C      513   7 N                                       1.3686566
   512   6 C      514   6 C                                       1.4008637
   515   6 C      516   6 C                                       1.3982988
   516   6 C      517   6 C                                       1.3829679
   517   6 C      518   6 C                                       1.3919430
   519   7 N      520   8 O                                       1.2042348
   519   7 N      521   8 O                                       1.2042912
   518   6 C      522   6 C                                       1.3919983
   515   6 C      523   6 C                                       1.3983662
   522   6 C      523   6 C                                       1.3828617
   514   6 C      524   6 C                                       1.3962645
   524   6 C      525   6 C                                       1.4523408
   525   6 C      526   6 C                                       1.3487659
   487   6 C      527   6 C                                       1.4095215
   526   6 C      527   6 C                                       1.4497991
   524   6 C      528   7 N                                       1.3611470
   527   6 C      528   7 N                                       1.3482658
   489   6 C      529   1 H                                       1.0779084
   490   6 C      530   1 H                                       1.0776591
   492   7 N      531   1 H                                       1.0145423
   495   6 C      532   1 H                                       1.0837020
   496   6 C      533   1 H                                       1.0833614
   501   6 C      534   1 H                                       1.0833715
   502   6 C      535   1 H                                       1.0838016
   504   6 C      536   1 H                                       1.0778193
   505   6 C      537   1 H                                       1.0780796
   510   6 C      538   1 H                                       1.0779012
   511   6 C      539   1 H                                       1.0776565
   513   7 N      540   1 H                                       1.0145460
   516   6 C      541   1 H                                       1.0838001
   517   6 C      542   1 H                                       1.0833727
   522   6 C      543   1 H                                       1.0833610
   523   6 C      544   1 H                                       1.0837035
   525   6 C      545   1 H                                       1.0778198
   526   6 C      546   1 H                                       1.0780782
   547   6 C      548   6 C                                       1.4085451
   548   6 C      549   6 C                                       1.4188040
   549   6 C      550   6 C                                       1.3679807
   550   6 C      551   6 C                                       1.4216702
   548   6 C      552   7 N                                       1.3627836
   551   6 C      552   7 N                                       1.3687540
   551   6 C      553   6 C                                       1.4006562
   554   6 C      555   6 C                                       1.3983581
   555   6 C      556   6 C                                       1.3828710
   556   6 C      557   6 C                                       1.3920063
   558   7 N      559   8 O                                       1.2043207
   558   7 N      560   8 O                                       1.2042102
   557   6 C      561   6 C                                       1.3919469
   554   6 C      562   6 C                                       1.3983111
   561   6 C      562   6 C                                       1.3829591
   553   6 C      563   6 C                                       1.3965085
   563   6 C      564   6 C                                       1.4523200
   564   6 C      565   6 C                                       1.3487584
   563   6 C      566   7 N                                       1.3609439
   565   6 C      567   6 C                                       1.4497496
   566   7 N      567   6 C                                       1.3485805
   567   6 C      568   6 C                                       1.4093784
   568   6 C      569   6 C                                       1.4083941
   569   6 C      570   6 C                                       1.4187267
   570   6 C      571   6 C                                       1.3680403
   571   6 C      572   6 C                                       1.4216207
   569   6 C      573   7 N                                       1.3629913
   572   6 C      573   7 N                                       1.3685651
   572   6 C      574   6 C                                       1.4009446
   575   6 C      576   6 C                                       1.3983017
   576   6 C      577   6 C                                       1.3829662
   577   6 C      578   6 C                                       1.3919663
   579   7 N      580   8 O                                       1.2042706
   579   7 N      581   8 O                                       1.2043177
   578   6 C      582   6 C                                       1.3920192
   575   6 C      583   6 C                                       1.3983847
   582   6 C      583   6 C                                       1.3828420
   574   6 C      584   6 C                                       1.3962647
   584   6 C      585   6 C                                       1.4524107
   585   6 C      586   6 C                                       1.3487467
   547   6 C      587   6 C                                       1.4095000
   586   6 C      587   6 C                                       1.4498179
   584   6 C      588   7 N                                       1.3611400
   587   6 C      588   7 N                                       1.3482726
   549   6 C      589   1 H                                       1.0779094
   550   6 C      590   1 H                                       1.0776618
   552   7 N      591   1 H                                       1.0145434
   555   6 C      592   1 H                                       1.0836989
   556   6 C      593   1 H                                       1.0833611
   561   6 C      594   1 H                                       1.0833701
   562   6 C      595   1 H                                       1.0838032
   564   6 C      596   1 H                                       1.0778144
   565   6 C      597   1 H                                       1.0780640
   570   6 C      598   1 H                                       1.0779121
   571   6 C      599   1 H                                       1.0776608
   573   7 N      600   1 H                                       1.0145498
   576   6 C      601   1 H                                       1.0837994
   577   6 C      602   1 H                                       1.0833722
   582   6 C      603   1 H                                       1.0833604
   583   6 C      604   1 H                                       1.0837060
   585   6 C      605   1 H                                       1.0778241
   586   6 C      606   1 H                                       1.0780840

 * 5 distinct bonds (by element types)

   Z      Z             #   av. dist./Å        max./Å        min./Å
   1 H    6 C         146     1.0807921     1.0852802     1.0776509
   6 C    6 C         318     1.3833760     1.4526792     1.2246745
   1 H    7 N          18     1.0145730     1.0147735     1.0145368
   6 C    7 N          72     1.3602526     1.3691887     1.3482363
   7 N    8 O          36     1.2043011     1.2045389     1.2042089


optimized geometry written to: xtbopt.xyz


           -------------------------------------------------
          | TOTAL ENERGY            -1170.040914263558 Eh   |
          | GRADIENT NORM               0.000655563988 Eh/α |
          | HOMO-LUMO GAP               0.738865727448 eV   |
           -------------------------------------------------

------------------------------------------------------------------------
 * finished run on 2022/08/01 at 18:09:09.716     
------------------------------------------------------------------------
 total:
 * wall-time:     0 d,  1 h,  7 min, 12.811 sec
 *  cpu-time:     0 d,  1 h, 25 min, 22.097 sec
 * ratio c/w:     1.270 speedup
 SCF:
 * wall-time:     0 d,  0 h,  7 min, 27.596 sec
 *  cpu-time:     0 d,  0 h,  7 min, 31.547 sec
 * ratio c/w:     1.009 speedup
 ANC optimizer:
 * wall-time:     0 d,  0 h, 59 min, 44.732 sec
 *  cpu-time:     0 d,  1 h, 17 min, 48.842 sec
 * ratio c/w:     1.302 speedup

