606
 energy: -1170.040914263558 gnorm: 0.000655563988 xtb: 6.4.1 (bd6e46d)
C       106.55760039303084   -0.07841576274246    0.07064108061720
C       107.16942611272731   -1.29348865988198    0.34975467735137
C       106.51937940941410   -2.53097092548091    0.61818387146148
C       107.48287654724645   -3.47134868152472    0.84947538500586
C       108.75304470841303   -2.83516183141185    0.74190315989181
N       108.51328658294770   -1.52808074806771    0.42874782995631
C       110.01943160145076   -3.41190886240696    0.89535933101886
C       110.05844887472627   -4.84800438123817    1.25561146461495
C       110.69073676036973   -5.76820645194859    0.41328557324212
C       110.72907466218905   -7.11105311633459    0.74074162018872
C       110.13350918959964   -7.53862426479143    1.92415037304330
N       110.17182908099844   -8.94734786416666    2.27383188258488
O       110.73529764244638   -9.69498171430044    1.51613538862215
O       109.63687567107951   -9.28204639194064    3.29973101299198
C       109.50139653635496   -6.63905297016438    2.77790041002259
C       109.46440568792470   -5.29890013685873    2.43853203601692
C       111.23402140251913   -2.73832996484353    0.73694534370293
C       112.53369143776716   -3.34023128477345    0.97709210403916
C       113.44988384404596   -2.38286852117089    0.72545948802047
N       111.38203068934754   -1.43682229839989    0.36852000809976
C       112.70879367120641   -1.19717721269487    0.34050087813489
C       113.34121600398937    0.00991994458306   -0.01989597555667
C       112.70175544062775    1.21433987781801   -0.37055064356725
C       113.34305824805772    2.41792479258234   -0.76583801010319
C       112.37475281682836    3.35345348999618   -1.00374539004307
C       111.11143301778462    2.75067861707031   -0.74966614291520
N       111.36039241186879    1.45574692817233   -0.38116331979659
C       109.84627855827351    3.33662653589326   -0.87473507078209
C       109.80884589479292    4.76546287635895   -1.25992056470576
C       109.15150005933097    5.16474435266109   -2.42820062734286
C       109.11703268269696    6.49724184668271   -2.79586836961430
C       109.74123851481008    7.44183652471224   -1.98581081951080
N       109.70832981704990    8.84233378638040   -2.36686110061295
O       109.12488585268136    9.13126440874989   -3.38016261573690
O       110.26744694699129    9.62954954241188   -1.64672684128547
C       110.39763260056236    7.06643651711198   -0.81698656669588
C       110.43070957855933    5.73064839723216   -0.46113895672667
C       108.63134403375967    2.67491046646057   -0.66247591509777
C       107.32566438310073    3.31378838281936   -0.73277282731313
C       106.41694054135225    2.35454898321692   -0.46736339019511
C       107.16616879505405    1.13397609068416   -0.22418531063406
N       108.49696216461120    1.36767585125550   -0.33924198985719
H       105.47246910236501   -0.08719010577561    0.08625265013016
H       105.45042152627030   -2.67157743730725    0.62331945051454
H       107.33243389051508   -4.51639458894136    1.06631691320736
H       109.23800979290414   -0.83518956290545    0.27390280650804
H       111.13937759620505   -5.42464249084282   -0.51144522956944
H       111.21145202800021   -7.83173044866069    0.09142813413979
H       109.05023001343619   -6.99627181502291    3.69580356172823
H       108.98867574960806   -4.58724259121962    3.10325609031771
H       112.70097219591123   -4.35170727344711    1.30978017025671
H       114.52399024024281   -2.44517529675897    0.79378108323547
H       114.40980947995476    2.54099044368203   -0.86009760244226
H       112.52055170612188    4.36792349484445   -1.33691486622693
H       110.63937254049435    0.77807343999462   -0.15610955555464
H       108.68186508575258    4.41844974833104   -3.05820901205174
H       108.61639813046341    6.81457131077489   -3.70270452459542
H       110.87084323531758    7.82136194202062   -0.20066055662750
H       110.92573056958575    5.42866838114104    0.45451022512906
H       107.15327507878482    4.35724030361545   -0.94165129474229
H       105.34230839621905    2.43554523222040   -0.42433366505266
C       262.01293380439694    0.06736018426040   -0.05059188911621
C       261.40070357767320    1.25428758566799   -0.43138734109336
C       262.05010060322127    2.45093648527095   -0.84645136841328
C       261.08646556842120    3.37869757753511   -1.12357360799870
C       259.81698420394594    2.78178895102395   -0.87509229324957
N       260.05708040039428    1.49997721593065   -0.47098999889186
C       258.55072369951978    3.35810515673751   -1.03114905599226
C       258.51226537800068    4.77451459996777   -1.46260338637719
C       257.87335875800727    5.13138658052568   -2.65440236327092
C       257.83507434660038    6.45147525582259   -3.06421461180050
C       258.43744933878293    7.42579272888623   -2.27314150363495
N       258.39858892000177    8.81390498935821   -2.69730138203660
O       257.82950458386091    9.06641402647983   -3.72824328970047
O       258.93858918660823    9.62769746280466   -1.99240807594496
C       259.07671325520857    7.09237155527026   -1.08240703238263
C       259.11357097314203    5.76853007580262   -0.68420798582407
C       257.33619946773263    2.70268851997871   -0.80911239513757
C       256.03710815439024    3.34430286521084   -0.90833668696055
C       255.12094132171822    2.39764410298667   -0.61906124942705
N       257.18798334447717    1.39973530710984   -0.44585498065582
C       255.86153150129547    1.18350340493338   -0.33496368673602
C       255.22884822430194   -0.03138051234413   -0.00242686974062
C       255.86775931182532   -1.24289616112901    0.32374600346260
C       255.22532011675563   -2.47316589549150    0.62365288741369
C       256.19359702153633   -3.39999870589843    0.89340557813090
C       257.45826515428769   -2.75896458656631    0.77672054104743
N       257.20973845426738   -1.46032276874108    0.42113435845670
C       258.72377362870009   -3.33059983379811    0.95335489854421
C       258.76139590423963   -4.75303130739899    1.36169094121675
C       259.40034378370422   -5.70135680141005    0.55617592082667
C       259.43426441760653   -7.03257684104804    0.92842029546521
C       258.82817978792264   -7.42031232579781    2.12022940750301
N       258.86009442808108   -8.81681602260153    2.51576495412099
O       259.42634799091383   -9.59036720727728    1.78659413121352
O       258.31726339962461   -9.11657129011050    3.54839898474713
C       258.19066349957649   -6.49210344673509    2.93871460362531
C       258.15788291055878   -5.16413155111950    2.55459376222201
C       259.93911238892042   -2.66015289017032    0.77320125691965
C       261.24605430217082   -3.24919565992971    1.02390388792191
C       262.15491256748692   -2.29470509012862    0.74234531262420
C       261.40469117499606   -1.12083402790658    0.33067741397194
N       260.07324617984921   -1.37472734279906    0.37192018474596
H       263.09814253606385    0.07899699652461   -0.05501972909833
H       263.11867007428958    2.57091823942661   -0.92539764647595
H       261.23626055397807    4.38542312695154   -1.47832175364232
H       259.33271638776944    0.82867722331872   -0.23871097811858
H       257.41934010634833    4.36195255981453   -3.26781056485386
H       257.34738020669596    6.73638536390809   -3.98869134417281
H       259.53336601698567    7.86999037583171   -0.48201142397832
H       259.59491081849791    5.49921933458711    0.24875764106038
H       255.87019895041831    4.38143852591018   -1.14964293978342
H       254.04721279578078    2.48855855429750   -0.58593109011871
H       254.15776531712470   -2.62253346165739    0.62334587268480
H       256.04672842331587   -4.43878500232913    1.13989028057372
H       257.93138743850767   -0.76804120581851    0.24869843806907
H       259.85580514684375   -5.38967624321318   -0.37647715497771
H       259.92050237156855   -7.77499013725034    0.30706977694792
H       257.73151292987939   -6.81817772101981    3.86421863323771
H       257.67749212426099   -4.43033958031655    3.19131595025560
H       261.41926830973415   -4.25125487186070    1.38169765883249
H       263.23036226740936   -2.34644975966476    0.80540876745768
C       114.74632920659548    0.02668795919017   -0.03514976717492
C       115.97088941719045    0.04248521412398   -0.04800492672366
C       117.31282772035863    0.05127163905718   -0.06149771394536
C       118.54365541238025    0.05904070605851   -0.06867986608220
C       119.88079465631959    0.06400088063159   -0.07464070717484
C       121.11175320084179    0.06598133259709   -0.07833982889699
C       122.45350013089039    0.06441813823938   -0.08013926333799
C       123.67847029952317    0.05951599288623   -0.07818032267832
C       133.34043821396327    0.05170923586153    0.01127460935999
C       134.56543373175563    0.04989406567037    0.02514697165723
C       135.90683194013482    0.04827274181040    0.03455513940252
C       137.13795856821966    0.04491735746976    0.03934441895521
C       138.47466092289960    0.03861566951119    0.04181320344654
C       139.70580714711537    0.03108768703869    0.04013433665286
C       141.04716412815543    0.02152243752482    0.03376168585402
C       142.27213097908043    0.00855784310627    0.02639271710780
C       151.93177736506894   -0.08821620041923   -0.08710564134848
C       153.15674333456775   -0.09799768646619   -0.09673180524687
C       154.49802324377231   -0.10390909297983   -0.10883151625461
C       155.72911447217155   -0.10761617921946   -0.11645218214895
C       157.06575902628609   -0.10910052177037   -0.12375737060349
C       158.29693327470147   -0.11141744030510   -0.12931221438093
C       159.63828128469041   -0.11292354982032   -0.13489389368110
C       160.86332774932691   -0.11338480970380   -0.13699310140989
C       170.52291759128215   -0.12174461429199   -0.14911684101997
C       171.74799457251649   -0.12471410844741   -0.15154605917366
C       173.08935246348514   -0.12450620919709   -0.15532265395544
C       174.32047821233084   -0.12365728904215   -0.15753145413753
C       175.65713139599546   -0.12264448235354   -0.15913477836275
C       176.88826207344664   -0.12124157946392   -0.15925629772943
C       178.22961003745576   -0.11802995760886   -0.15956910226074
C       179.45466123488916   -0.11773128460875   -0.15635156767317
C       189.11419861943313   -0.13804421172470   -0.16961264674378
C       190.33923965016737   -0.14358864675780   -0.17337822703924
C       191.68060713602401   -0.14481017549430   -0.17782897346993
C       192.91172267245770   -0.14591517368810   -0.18019369655943
C       194.24836916513260   -0.14393252817627   -0.18256187999091
C       195.47946916717848   -0.14044901319744   -0.17998578381131
C       196.82079137953363   -0.13366411864885   -0.17632011392216
C       198.04582038591093   -0.13070526535603   -0.17031561826746
C       207.70542901428794   -0.09367653677684   -0.12301468337418
C       208.93051742289444   -0.09073306934828   -0.11977887167068
C       210.27185904256592   -0.08580466771212   -0.11624113827785
C       211.50299013872583   -0.08030279786457   -0.11301903338517
C       212.83961667661293   -0.07299061891343   -0.10950214494450
C       214.07070174633805   -0.06586735484379   -0.10439642153002
C       215.41203288955373   -0.05853912286828   -0.10019971221282
C       216.63706563303006   -0.05349150653400   -0.09249229129256
C       226.29717277304502    0.01607428466365   -0.00159365827318
C       227.52218816043850    0.01894861133784    0.01159054348582
C       228.86355654793860    0.02315795103711    0.02123056353855
C       230.09467552962650    0.02363419851207    0.02972109469802
C       231.43136603657007    0.01872345213380    0.03611294319095
C       232.66248721614295    0.01275239257761    0.03862240161396
C       234.00388712304220    0.00410461201516    0.03870046320555
C       235.22891512233224   -0.00795682307026    0.03928765413661
C       244.89131301309612   -0.09301588683321    0.02568622805072
C       246.11623486353020   -0.09807207049558    0.02798412735737
C       247.45806342579635   -0.09825477016306    0.02686605870747
C       248.68898312805064   -0.09533113645668    0.02643383140897
C       250.02621029273348   -0.08927434870786    0.02350324831267
C       251.25701384461669   -0.07970152395096    0.02087736529874
C       252.59904142827611   -0.06551074701903    0.01537188548210
C       253.82358353306356   -0.04940909605432    0.00731319101330
C       125.08259796257963    0.05538970844303   -0.07238979951808
C       125.71535868802019    1.06473565491308   -0.82384678791820
C       125.07123965336721    2.09308777806537   -1.55891373663712
C       126.03919786830832    2.84797779824770   -2.16292080438006
C       127.30304655650465    2.29454671618172   -1.82041865500822
N       127.05709338460647    1.22657981098390   -1.00073686932431
C       128.56696599991784    2.75229700319285   -2.21507759055358
C       128.58905959385103    3.90841865862134   -3.14181635895660
C       129.21152690515311    5.10263573023236   -2.76518852465662
C       129.23275891334686    6.18598212205554   -3.62438954522233
C       128.63041284467590    6.07321387559570   -4.87426378875769
N       128.65069207432040    7.20726626119574   -5.78124830458838
O       128.11185963617700    7.07571025965528   -6.85026576246313
O       129.20429542752623    8.20960259668330   -5.40833851368669
C       128.00818482227095    4.89259031122488   -5.26990785529900
C       127.98776005685293    3.81694714399370   -4.40095701509685
C       129.78960673793239    2.21252124731479   -1.81099420509042
C       131.07930161827872    2.67317115924275   -2.29470932848705
C       132.01047286212813    1.91798395146292   -1.67686542245222
N       129.95792363483091    1.18306352227700   -0.93655140375186
C       131.28805795375783    0.99247851080189   -0.82627328894645
C       131.93668743600372    0.04959014112516   -0.00351988270607
C       131.30342420924623   -0.90747108760808    0.81323403564204
C       131.94658286214383   -1.83960693799501    1.66791147476647
C       130.97875200539741   -2.59909078201491    2.26616566278632
C       129.71604481524324   -2.15778954128900    1.78454422857272
N       129.96252543230017   -1.12668718760654    0.91875544540287
C       128.45269987665890   -2.65257584333422    2.13249780308443
C       128.42972687935222   -3.80224082405862    3.06721407225606
C       129.04746994566014   -5.00817837307302    2.72171411261128
C       129.02710104071849   -6.08321748577100    3.59147469098914
C       128.38822726423118   -5.94980327665195    4.82093562602895
N       128.36858420598975   -7.07394476831034    5.74023395201469
O       127.80139833020769   -6.92418008098711    6.79194000850220
O       128.92165223950937   -8.08635197381295    5.39457926883484
C       127.76883854074681   -4.75754648467873    5.18504906918151
C       127.79022235282204   -3.69045552416793    4.30578356344050
C       127.23052703830332   -2.15500046282430    1.67529055470973
C       125.94261289808067   -2.73949649827636    2.00523701250435
C       125.01126477803548   -1.98345991005046    1.38860282863428
C       125.73193803597628   -0.94656327272873    0.67646827036091
N       127.06172559186180   -1.08213963588941    0.85517681097675
H       124.00374191605407    2.23370856473466   -1.60960239723630
H       125.89168649637824    3.71755908366750   -2.78213892469039
H       127.77618177253332    0.64536641310402   -0.58311893966911
H       129.66597058155210    5.18166746115616   -1.78455143391878
H       129.70705101100776    7.11723614629739   -3.33892554624456
H       127.55113902107324    4.82864802360563   -6.25006759899636
H       127.51849175325866    2.88793999609570   -4.70322295815513
H       131.23016263635409    3.45630284133221   -3.01972296285852
H       133.08329406742712    1.95740753833773   -1.77572784014961
H       133.01327045195532   -1.90959477943033    1.80634902357256
H       131.12553182270415   -3.38812446675365    2.98535916529501
H       129.24405290499507   -0.60095391721763    0.43225095650949
H       129.52981124864897   -5.10454321136526    1.75595849676888
H       129.49711988344839   -7.02354750012117    3.32965487718819
H       127.28151729039313   -4.67821561317147    6.14935896600591
H       127.32256866505939   -2.75280990601996    4.58243309613681
H       125.79323039723893   -3.61737986636389    2.61244203194069
H       123.93948377693144   -2.09963768356983    1.39237682861088
C       143.67581590036087   -0.00385894434279    0.01115683165083
C       144.30141214505392    0.99380086280878   -0.76191197392217
C       143.65060755062254    2.02240732658099   -1.49073131541526
C       144.61215118273918    2.76705146426026   -2.11724495485796
C       145.87827041911390    2.20596684538735   -1.79640123598660
N       145.64045059375292    1.14441531292118   -0.96586582646265
C       147.13758593651352    2.65087985759290   -2.21903913909624
C       147.15118657910992    3.80465544359079   -3.14890787722562
C       147.79231316477600    4.99357858827489   -2.78713101403226
C       147.80582041026778    6.07544786882096   -3.64832922788563
C       147.17676566413533    5.96641993023929   -4.88528783128664
N       147.18875799845739    7.09906252767157   -5.79431321116778
O       146.62700510649060    6.97092773027256   -6.85182521374962
O       147.75897766718765    8.09676044947910   -5.43427985307784
C       146.53580779308894    4.79101017610283   -5.26616959870300
C       146.52343094194742    3.71676933089438   -4.39526724071369
C       148.36338652053129    2.10041627574939   -1.83963072283434
C       149.64652426416939    2.54598500061952   -2.35376626831545
C       150.58344583918461    1.78292363568969   -1.75453621091581
N       148.54057305719152    1.07225686691540   -0.96542344982256
C       149.87081263050263    0.86811686236628   -0.88437179426253
C       150.52811196044175   -0.07792404252988   -0.07214231312075
C       149.90407855042966   -1.02406366476049    0.76420090503377
C       150.55737128823193   -1.95871487516966    1.60833333307369
C       149.59589607752972   -2.70264831921041    2.23570692778375
C       148.32687586187294   -2.24888750357924    1.78326402286545
N       148.56373109768546   -1.22670436774231    0.90438646264205
C       147.06676692446257   -2.72502497506266    2.16741086117294
C       147.05344674940736   -3.86744967533684    3.11120286666273
C       147.64563312420441   -5.08400946888800    2.75832230968872
C       147.63332063319132   -6.15280967658968    3.63589308906543
C       147.02853180660142   -6.00235014339565    4.88051341323719
N       147.01681463685509   -7.12027412074001    5.80761324524063
O       146.47878060232154   -6.95584918444404    6.87233234481248
O       147.54663255238930   -8.14254489193960    5.45468820381293
C       146.43542450565508   -4.79916654656444    5.25231844572355
C       146.44835535407248   -3.73838624940108    4.36525962644973
C       145.83971271706204   -2.21626190916426    1.73678530151661
C       144.55345610142436   -2.78224377821366    2.10350218332486
C       143.61639059181778   -2.02305819492891    1.49954801655729
C       144.33167002266936   -1.00214579820732    0.75934691526572
N       145.66350386829762   -1.15000753511987    0.90943160908704
H       142.58342313323237    2.17090207368536   -1.52143610008023
H       144.45893033686588    3.63442546694370   -2.73815473475013
H       146.36329811850314    0.56011512949144   -0.55918209183493
H       148.26764966910261    5.06969393660694   -1.81621748966621
H       148.29450057169714    7.00266606706864   -3.37423876555236
H       146.05809605899972    4.72991037471594   -6.23660788235088
H       146.03966648998025    2.79166214651957   -4.68641586071520
H       149.78906774951380    3.32509608572701   -3.08476768616350
H       151.65409041641135    1.81063149632328   -1.87785174840424
H       151.62630054537857   -2.04081930068037    1.72028257915857
H       149.75124220963130   -3.48895372478853    2.95608457738843
H       147.83949025342778   -0.69531880193188    0.43278913601433
H       148.10122287601195   -5.19349281192443    1.78104301877250
H       148.08343088910294   -7.10130009705084    3.36857352068450
H       145.97464827251957   -4.70664631373081    6.22843150065059
H       146.00096068904574   -2.79250706762984    4.64732809565076
H       144.40861633572226   -3.65124657276393    2.72442848494699
H       142.54375101646821   -2.12696419301738    1.52949295720940
C       162.26710728962647   -0.11173605630483   -0.13780960867840
C       162.89119081273384    0.89301295373061   -0.90274009990046
C       162.23818041300319    1.91629048268230   -1.63710482526677
C       163.19920322329705    2.67382909156766   -2.24874953975778
C       164.46740594604083    2.12611762759590   -1.91321596250643
N       164.23090726827093    1.05921239217689   -1.08913989287357
C       165.72714206298818    2.58593825919531   -2.31814291902962
C       165.74098076633518    3.74511649111350   -3.24117720060595
C       166.36800798741433    4.93705788451510   -2.86473754122832
C       166.38177692066745    6.02463568989052   -3.71866873065765
C       165.76710816858716    5.91849150602018   -4.96309567407282
N       165.77934922193722    7.05718448653255   -5.86449740892681
O       165.22775917244385    6.93229878200409   -6.92770920559609
O       166.33967107320396    8.05623916869791   -5.49294470575091
C       165.14044412908405    4.74020869806205   -5.35861412157337
C       165.12780468149001    3.66010491138212   -4.49497225991607
C       166.95369375309545    2.04518460768110   -1.92698845801548
C       168.23805888470349    2.50279727686177   -2.42729695948273
C       169.17528029191863    1.74462098290727   -1.82236875681408
N       167.13077093163943    1.01577798660851   -1.05432124661175
C       168.46183640477153    0.82185947717171   -0.96131648396974
C       169.11912928818572   -0.11968629193612   -0.14393352639399
C       168.49524449610342   -1.06784048306190    0.69030736750211
C       169.14844956519732   -1.99233844533817    1.54559220829830
C       168.18741299344660   -2.74042018077348    2.16874638749244
C       166.91898533723318   -2.30024654436297    1.70160245834483
N       167.15542371962960   -1.28096173125025    0.81924131616647
C       165.65920018753738   -2.78610029708415    2.07445817011874
C       165.64485212782432   -3.92067233959978    3.02762006387393
C       166.25315062361679   -5.13464767416607    2.69392187563014
C       166.23891267339829   -6.19550002633610    3.58110754616556
C       165.61586376914991   -6.03955561932466    4.81600163731964
N       165.60173340694755   -7.14915389230223    5.75301890297800
O       165.04802440907864   -6.98003543369113    6.80892508770981
O       166.14529406733493   -8.16973184237821    5.41649955240095
C       165.00645514594069   -4.83876778337803    5.16870851061772
C       165.02152632666284   -3.78605738136371    4.27217268636094
C       164.43256079560405   -2.29335174781079    1.62454524768765
C       163.14800184490551   -2.87250363126871    1.97633637822498
C       162.21068710414482   -2.12737418896990    1.35554498000657
C       162.92428815445700   -1.10141635396474    0.62066547076858
N       164.25550993942323   -1.23323796396144    0.78949721172992
H       161.16984318203885    2.05263926357986   -1.68123978958748
H       163.04405804436871    3.54137446989790   -2.86893313311634
H       164.95514415894550    0.48240529121122   -0.67429705757127
H       166.83206099264532    5.01077972454195   -1.88819269591407
H       166.85957366699907    6.95409514497837   -3.43321093977811
H       164.67390988185892    4.68148397056593   -6.33462272860261
H       164.65544696867738    2.73280497035304   -4.79764251329576
H       168.38125020884672    3.28554138083750   -3.15427915542681
H       170.24677109842096    1.78111094599312   -1.93559482256334
H       170.21693075714950   -2.06479536211492    1.66798221845945
H       168.34269115805952   -3.52108067868639    2.89524551322947
H       166.43108751394502   -0.75836968933267    0.33804374587644
H       166.72277404735050   -5.24880334904586    1.72385116374602
H       166.70140301975547   -7.14209757859135    3.32861651120110
H       164.53144349834869   -4.74181878721309    6.13754124634939
H       164.56125410953067   -2.84201547134405    4.53929530733832
H       163.00473780237209   -3.74030477158102    2.59930533198056
H       161.13903942478535   -2.24387708389341    1.37098270432786
C       180.85844946789064   -0.11508005109996   -0.15384919946587
C       181.48356204065064    0.88873207507920   -0.91921652909343
C       180.83167461091389    1.91227261278318   -1.65422757852825
C       181.79360475694205    2.66968887138224   -2.26459900786320
C       183.06124419462446    2.12118443383391   -1.92823986115304
N       182.82350382977751    1.05430526179718   -1.10445327245676
C       184.32158085125377    2.57939036842229   -2.33299874615650
C       184.33753094143660    3.73996465863858   -3.25424006472958
C       184.96722900024946    4.92979767809862   -2.87556667243387
C       184.98324423459536    6.01902027987711   -3.72734055437676
C       184.36825173425012    5.91658790395692   -4.97191393123654
N       184.38283683942700    7.05705379959072   -5.87108986607719
O       183.83290793139949    6.93463777101927   -6.93545668098887
O       184.94321105567130    8.05499425317442   -5.49659984035759
C       183.73910775183069    4.74040224728726   -5.36970637937625
C       183.72415707474488    3.65864206720236   -4.50815592583478
C       185.54735992977464    2.03571955471514   -1.94339672949348
C       186.83200622366348    2.49000769585713   -2.44598898252125
C       187.76831977018932    1.72921580022633   -1.84294292562658
N       185.72329889757071    1.00597927124225   -1.07093369170254
C       187.05403297076339    0.80860164636015   -0.98031060006178
C       187.71042285327022   -0.13311445412554   -0.16241305202855
C       187.08558965610061   -1.07713051087382    0.67581995694811
C       187.73788465578858   -1.99946821931179    1.53409883370042
C       186.77600926298373   -2.74227846489352    2.16224457470833
C       185.50791132022036   -2.30121519356518    1.69501976290243
N       185.74545689278068   -1.28651573140459    0.80769904278822
C       184.24746220039088   -2.78274823872647    2.07135878841372
C       184.23165615178624   -3.91195650259438    3.03080998651538
C       184.83887684809858   -5.12847806150979    2.70447535341989
C       184.82403423768756   -6.18380825134084    3.59821274186273
C       184.20127523716909   -6.01981424372815    4.83220975724311
N       184.18688551873734   -7.12344834250989    5.77623455506101
O       183.63257291353307   -6.94774836604184    6.83075565173500
O       184.73090856086722   -8.14599559549405    5.44651115382197
C       183.59249262919505   -4.81654115254143    5.17744981320419
C       183.60828098121746   -3.76937282648839    4.27446914536809
C       183.02143748231995   -2.29048418400445    1.61920127428205
C       181.73625449820304   -2.86716609972798    1.97281395879024
C       180.79986516179878   -2.12474980019999    1.34738970682200
C       181.51459208781330   -1.10229638700245    0.60871529344301
N       182.84560613186162   -1.23406700604076    0.77922013680138
H       179.76344245394890    2.04912880156758   -1.69930445297432
H       181.63938853407663    3.53749305602172   -2.88465117249404
H       183.54710309315982    0.47711043442572   -0.68903234495686
H       185.43166617237472    5.00052186001262   -1.89898019764607
H       185.46311353189259    6.94687356877307   -3.44013803346202
H       183.27245204464290    4.68455754541953   -6.34582457809015
H       183.24987592559256    2.73292236295493   -4.81264099864370
H       186.97586664327071    3.27234148466084   -3.17327888611842
H       188.83967707387242    1.76270953590587   -1.95829496582352
H       188.80637711358330   -2.07401860598616    1.65508681958075
H       186.93059856269932   -3.51991410158705    2.89212054753222
H       185.02161812100871   -0.76418782470703    0.32545826848757
H       185.30820837453277   -5.24902859095336    1.73503938788238
H       185.28591387748813   -7.13223537720714    3.35154162251112
H       183.11753905274796   -4.71332677323498    6.14566332682609
H       183.14865746184540   -2.82339426984285    4.53580080346084
H       181.59201412736059   -3.73189260254875    2.59982182949981
H       179.72814671584626   -2.24065327975927    1.36246538655569
C       199.44959272860129   -0.12297391361862   -0.16308205785320
C       200.07360151242622    0.88255702779841   -0.92709656575845
C       199.42040381570931    1.90037282444037   -1.66889759022928
C       200.38168740799986    2.66111034613795   -2.27612855426904
C       201.65035695548275    2.12086103393454   -1.93041183188797
N       201.41367802735815    1.05501553077053   -1.10496729679861
C       202.91040991727763    2.58586936189753   -2.32809475527940
C       202.92511439486060    3.74321533658857   -3.25347090647146
C       203.54291923043991    4.93915090256094   -2.87449152310914
C       203.55824862294395    6.02490311676523   -3.73071024183471
C       202.95471616214363    5.91275399899911   -4.98004763201920
N       202.96919499407855    7.04934156868438   -5.88413525885580
O       202.43113169076076    6.91776762937446   -6.95345478854067
O       203.51768811651675    8.05342633981094   -5.50851829268906
C       202.33722394003462    4.73047935699323   -5.37804066915376
C       202.32264364553282    3.65230910217173   -4.51199358586150
C       204.13703863960032    2.05183763665543   -1.92799586436338
C       205.42222301205859    2.51421854217077   -2.42173871987110
C       206.35930375563450    1.76177108387343   -1.80947314944264
N       204.31360363464177    1.02549631606373   -1.05169038888287