132
 energy: -250.123663013496 gnorm: 2.852502017408 xtb: 6.5.1 (b24c23e)
Co          13.52947100000000       -0.12365700000000       -0.01845100000000
C           10.18501500000000        0.03213900000000        0.06998300000000
C           10.83643600000000        1.19437000000000        0.17111400000000
C           10.17368600000000        2.49095600000000        0.24231100000000
C           11.10536800000000        3.41797600000000        0.36572200000000
C           12.41668000000000        2.75522400000000        0.39233500000000
N           12.25267300000000        1.34280300000000        0.25849700000000
C           13.60313900000000        3.38060800000000        0.54073700000000
C           13.63903700000000        4.85078700000000        0.71673300000000
C           13.15024800000000        5.43719700000000        1.89540900000000
C           13.19462400000000        6.83251800000000        2.07151500000000
C           12.67504500000000        7.45367900000000        3.30977700000000
O           12.72590700000000        8.83526400000000        3.47672600000000
O           12.18154400000000        6.73957700000000        4.22433400000000
C           13.74217700000000        7.63193200000000        1.05299000000000
C           14.23596300000000        7.04810700000000       -0.11657700000000
C           14.18713800000000        5.66331400000000       -0.28528000000000
C           14.90111700000000        2.65592900000000        0.54710600000000
C           16.17878200000000        3.27245000000000        0.92470900000000
C           17.12184100000000        2.36271600000000        0.78695300000000
N           15.05536400000000        1.41595000000000        0.19640900000000
C           16.45302600000000        1.15375400000000        0.32210400000000
C           17.05798500000000       -0.00094700000000       -0.00066200000000
C           16.30536300000000       -1.19216200000000       -0.45267200000000
C           16.84511300000000       -2.21373700000000       -1.10535000000000
C           15.81146000000000       -3.21826700000000       -1.26435800000000
C           14.70970500000000       -2.74526400000000       -0.69334700000000
N           14.93165800000000       -1.44123800000000       -0.15417800000000
C           13.43813500000000       -3.50285200000000       -0.56869700000000
C           13.47404400000000       -4.97769300000000       -0.72415000000000
C           14.21871900000000       -5.75833200000000        0.17136900000000
C           14.27033800000000       -7.14489700000000        0.01916000000000
C           13.58459100000000       -7.76309200000000       -1.02942600000000
C           12.83965600000000       -6.99599500000000       -1.94321000000000
C           12.11495800000000       -7.64477900000000       -3.05814100000000
O           11.37740700000000       -6.87799000000000       -3.95666100000000
O           12.15753900000000       -8.89635100000000       -3.20515900000000
C           12.79388000000000       -5.59956700000000       -1.78454400000000
C           12.27034400000000       -2.88098300000000       -0.31604400000000
C           10.96886600000000       -3.52253800000000       -0.13722000000000
C           10.09804500000000       -2.54596800000000        0.02972200000000
C           10.83479800000000       -1.28454300000000       -0.02799200000000
N           12.10147700000000       -1.46756700000000       -0.22919100000000
H            9.10142600000000        0.04946100000000        0.06064000000000
H            9.10847000000000        2.67807300000000        0.19695000000000
H           10.90758100000000        4.47978200000000        0.43249200000000
H           12.73833300000000        4.80160900000000        2.67044900000000
H           12.37265600000000        9.27080000000000        4.32041300000000
H           13.79109500000000        8.70829900000000        1.15924800000000
H           14.65812600000000        7.67136300000000       -0.89430400000000
H           14.57424500000000        5.22309900000000       -1.19612900000000
H           16.34011700000000        4.28843000000000        1.26037300000000
H           18.17421200000000        2.51441700000000        0.98676900000000
H           17.87146300000000       -2.30132100000000       -1.43578500000000
H           15.92892000000000       -4.18454000000000       -1.73755700000000
H           14.75560900000000       -5.29212900000000        0.98851600000000
H           14.84388400000000       -7.74274800000000        0.71569000000000
H           13.63971400000000       -8.84022700000000       -1.12571300000000
H           10.87739600000000       -7.31218300000000       -4.72327400000000
H           12.23423200000000       -4.98940600000000       -2.48346700000000
H           10.73679800000000       -4.57939200000000       -0.13631400000000
H            9.03453800000000       -2.67090900000000        0.18554300000000
Co          31.42141300000000        0.12085500000000        0.02254800000000
C           34.76586900000000       -0.05526600000000        0.05532700000000
C           34.11444800000000       -1.18691800000000       -0.22817300000000
C           34.77719699999999       -2.43581200000000       -0.58379300000000
C           33.84551600000000       -3.35238600000000       -0.76951000000000
C           32.53420300000000       -2.73456200000000       -0.52817500000000
N           32.69821100000000       -1.35573500000000       -0.19398600000000
C           31.34774500000000       -3.37414800000000       -0.59187900000000
C           31.31184700000000       -4.82132500000000       -0.90505600000000
C           31.80063500000000       -5.76012600000000        0.01787800000000
C           31.75625900000000       -7.13657500000000       -0.27077800000000
C           32.27583900000000       -8.12766300000000        0.69714700000000
O           32.22497700000000       -9.48814000000000        0.40431600000000
O           32.76933900000000       -7.75093000000000        1.79461200000000
C           31.20870600000000       -7.56004100000000       -1.49435100000000
C           30.71492000000000       -6.62665500000000       -2.40951700000000
C           30.76374600000000       -5.26257300000000       -2.11729800000000
C           30.04976700000000       -2.69118200000000       -0.34948000000000
C           28.77210200000000       -3.39715100000000       -0.19362900000000
C           27.82904200000000       -2.49224000000000       -0.02711100000000
N           29.89551900000000       -1.40463000000000       -0.27653700000000
C           28.49785800000000       -1.19777300000000       -0.07219200000000
C           27.89289900000000       -0.00094700000000       -0.00066200000000
C           28.64552100000000        1.27255500000000       -0.03939600000000
C           28.10577000000000        2.45115000000000       -0.32315700000000
C           29.13942300000000        3.45260400000000       -0.14580800000000
C           30.24117900000000        2.81921600000000        0.23968800000000
N           30.01922500000000        1.41064400000000        0.32401700000000
C           31.51274800000000        3.49471100000000        0.60463200000000
C           31.47683899999999        4.93959500000000        0.93874900000000
C           30.73216400000000        5.38543500000000        2.03991900000000
C           30.68054600000000        6.74581200000000        2.34831000000000
C           31.36629200000000        7.67222700000000        1.55871800000000
C           32.11122700000000        7.24514500000000        0.44469900000000
C           32.83592600000000        8.22211600000000       -0.39763100000000
O           33.57347600000000        7.79034700000000       -1.49712100000000
O           32.79334500000000        9.45319100000000       -0.12836700000000
C           32.15700400000000        5.87333900000000        0.13919600000000
C           32.68053900000000        2.82444300000000        0.64062400000000
C           33.98201700000000        3.37258000000000        1.01893100000000
C           34.85283900000000        2.39496800000000        0.85820200000000
C           34.11608500000000        1.22136000000000        0.39219000000000
N           32.84940700000000        1.46000200000000        0.26169400000000
H           35.84945800000000       -0.06859300000000        0.04084500000000
H           35.84241400000000       -2.59789900000000       -0.68770800000000
H           34.04330300000000       -4.37789700000000       -1.05273500000000
H           32.21255100000000       -5.41210500000000        0.95784600000000
H           32.57822800000000      -10.17505200000000        1.05979500000000
H           31.15978900000000       -8.61219700000000       -1.74499700000000
H           30.29275800000000       -6.96214200000000       -3.34800300000000
H           30.37663900000000       -4.54933100000000       -2.83473900000000
H           28.61076600000000       -4.46705100000000       -0.20771800000000
H           26.77667100000000       -2.70082000000000        0.11229500000000
H           27.07942000000000        2.64172500000000       -0.60695100000000
H           29.02196400000000        4.52037800000000       -0.27794400000000
H           30.19527400000000        4.67819100000000        2.66030700000000
H           30.10700000000000        7.08376800000000        3.20175300000000
H           31.31117000000000        8.72185700000000        1.81904100000000
H           34.07348800000000        8.45084900000000       -2.08017900000000
H           32.71665200000000        5.52452500000000       -0.72052500000000
H           34.21408599999999        4.37133600000000        1.36451500000000
H           35.91634600000000        2.46225000000000        1.04625500000000
C           17.97507800000000        0.01467300000000        0.01026400000000
C           19.43330500000000       -0.00716400000000       -0.00761000000000
C           20.56723300000000       -0.02791700000000       -0.00910100000000
C           21.92861500000000       -0.04050700000000       -0.01129200000000
C           23.20283300000000       -0.03020100000000       -0.01605700000000
C           24.39129600000000       -0.01140300000000       -0.02221300000000
C           25.74365700000000        0.01338200000000       -0.00634500000000
C           26.84392400000000        0.01467300000000        0.01026400000000
132
 energy: -250.875708037952 gnorm: 0.588327750344 xtb: 6.5.1 (b24c23e)
Co          13.53222978685666       -0.11740698622882       -0.01662819906040
C           10.18583872486935        0.02274676633763        0.06949185802945
C           10.84161631873391        1.19620397808676        0.17145398808417
C           10.17260018420245        2.48728985811631        0.24185101652952
C           11.11032709025369        3.41930376098068        0.36613205207604
C           12.41466943840057        2.74921628968533        0.39147433066747
N           12.24645385261626        1.34664711200481        0.25694984274908
C           13.61200167681029        3.37884714556656        0.54171344146508
C           13.64005061407665        4.85225325904243        0.71820809300901
C           13.15037276321255        5.43929738541890        1.89439736395284
C           13.19500019328004        6.83569471036253        2.07118656071105
C           12.66947937826822        7.45261821103503        3.32169640693103
O           12.72596840120952        8.82997178420578        3.47547716133898
O           12.18594680883499        6.74726962402860        4.21631807099877
C           13.74252612672884        7.63087906243577        1.05203168152876
C           14.23493369094569        7.04718866762782       -0.11476317065162
C           14.18691032072037        5.66456189126908       -0.28364731533268
C           14.89558443369420        2.66938108666736        0.54945592293025
C           16.16910914974268        3.27926989015520        0.92460337554786
C           17.12084927298174        2.35476088919248        0.78455409591156
N           15.05404190990437        1.41235718399362        0.19783202249629
C           16.41559323134315        1.17650283033120        0.32886654909164
C           16.90828134228082       -0.01087279982031       -0.00491246033301
C           16.27314623835152       -1.19869461352349       -0.45259327896748
C           16.84487815161015       -2.22338255352579       -1.10921919971593
C           15.82197950903998       -3.21940731355434       -1.26676135487070
C           14.70095377015749       -2.74180075080214       -0.68733553281534
N           14.92579318337325       -1.44499350650901       -0.15909940109182
C           13.44385015408859       -3.49957346295194       -0.56897143448073
C           13.47564607601421       -4.97768379362260       -0.72539926601078
C           14.21828519915528       -5.75939800806397        0.16984377209341
C           14.26855194579245       -7.14391453622042        0.01708496339319
C           13.58405835826586       -7.76141540012723       -1.02990816588393
C           12.83816970242181       -6.99358013196537       -1.94476672700555
C           12.11146761027776       -7.65552762924971       -3.06490641022136
O           11.38039738156401       -6.88039753659993       -3.95283239843009
O           12.15644688320517       -8.88435519749791       -3.20464822793611
C           12.79443522046076       -5.59966276390345       -1.78289757427185
C           12.26937020697193       -2.87996371850595       -0.31601161655095
C           10.97338823060579       -3.52344218904388       -0.13791324606725
C           10.09386980242707       -2.54004241418861        0.03019631392164
C           10.82555342164013       -1.27867427592270       -0.02729956762849
N           12.10637906921168       -1.47055151610813       -0.22744097843039
H            9.10166825088130        0.04816530487764        0.06075738656316
H            9.10856404452303        2.67582055541880        0.19679763259154
H           10.91031652397736        4.47987603362404        0.43271844389992
H           12.73840644067780        4.80242606780821        2.67057985619083
H           12.37497111329432        9.26189634370038        4.31369716685251
H           13.79081591121769        8.70812601700704        1.15984548774984
H           14.65796271839718        7.67122209358971       -0.89404244996221
H           14.57401467050006        5.22286826313624       -1.19567458175207
H           16.33797385713745        4.28948152591180        1.26033429231913
H           18.17364220839037        2.51069650493104        0.98569116074175
H           17.87131366064538       -2.30127990852753       -1.43593528355253
H           15.93016924988122       -4.18423342003379       -1.73802677260174
H           14.75531680944912       -5.29191243006177        0.98812553265483
H           14.84353485220238       -7.74259699672832        0.71528256003810
H           13.63906092683149       -8.83998937973241       -1.12662239769440
H           10.88406162729979       -7.31229664138975       -4.71405493022429
H           12.23437795968347       -4.98977421243759       -2.48340402649019
H           10.73931505603400       -4.57918511623190       -0.13667235612501
H            9.03392959363084       -2.66895458886653        0.18572036953500
Co          31.41813775244538        0.11459253067355        0.02231174852063
C           34.76497403014056       -0.04627212169217        0.05790495557894
C           34.10932207694926       -1.18864440169133       -0.22845416606268
C           34.77827940185514       -2.43225257986356       -0.58304339257476
C           33.84065689399810       -3.35377179538570       -0.76952836854219
C           32.53624225703227       -2.72817620023670       -0.52701036980661
N           32.70455120916285       -1.35943423568559       -0.19668210892545
C           31.33853391248251       -3.37268776255299       -0.59045997055480
C           31.31081191643327       -4.82324147885687       -0.90413010271261
C           31.80050505065374       -5.76180098742756        0.01623240815658
C           31.75589142088611       -7.13948034756948       -0.27212005594256
C           32.28140306791053       -8.13053629191782        0.70875169499022
O           32.22491385562340       -9.48274308813767        0.40486266708521
O           32.76493698028570       -7.75559265371651        1.78453103281015
C           31.20835548311960       -7.55873570129459       -1.49491765353239
C           30.71593816724666       -6.62639109189548       -2.40750257423585
C           30.76398545917502       -5.26429988071863       -2.11616194726136
C           30.05621387876488       -2.70264631624230       -0.35169297262383
C           28.77985592363393       -3.40294619842069       -0.19559779366499
C           27.82958275735773       -2.48612495263017       -0.02678134062645
N           29.89667438038727       -1.40161140534756       -0.27320764030197
C           28.52610589846634       -1.21323509633126       -0.07322467344564
C           28.00052514646154        0.00528172471439       -0.00133296891359
C           28.66929556831837        1.27178196968354       -0.03637304462510
C           28.10606595443372        2.46246576222505       -0.32357041593934
C           29.12800469843463        3.45429135470295       -0.14785775598224
C           30.25063734668919        2.81361515167404        0.24444151485203
N           30.02416884228556        1.41536305583642        0.31974137299862
C           31.50625932138492        3.49161746556592        0.60319275830988
C           31.47524418827379        4.94001493667009        0.93751223478154
C           30.73262333560849        5.38692387891897        2.03881151069772
C           30.68233797559925        6.74556346567746        2.34602201040922
C           31.36682046859310        7.67079974708902        1.55772179376942
C           32.11271982982002        7.24338155433331        0.44242857971772
C           32.83938882222044        8.23445539554015       -0.40049677739024
O           33.57050196813010        7.79137690640529       -1.49273126724218
O           32.79444878647502        9.44171317602792       -0.13180205341392
C           32.15644620702739        5.87289726045671        0.14078400382744
C           32.68173256887577        2.82316812464246        0.64042784365908
C           33.97731564781981        3.37362223743475        1.01852081742540
C           34.85704495470024        2.38902282069166        0.85666449708291
C           34.12550719932872        1.21557131017982        0.39094770152962
N           32.84431989603952        1.46252734167557        0.26435624366768
H           35.84920721404362       -0.06741812363779        0.04138824304188
H           35.84232402320640       -2.59573157131761       -0.68712661438268
H           34.04056829278289       -4.37806313207332       -1.05255502727185
H           32.21247770153968       -5.41291992427610        0.95769961983058
H           32.57591491846124      -10.16444308890653        1.05635126153984
H           31.16006928713905       -8.61222941091656       -1.74437736218845
H           30.29291999394183       -6.96209884622429       -3.34771218915249
H           30.37687525568351       -4.54926364946361       -2.83423620915564
H           28.61285528744151       -4.46803311003733       -0.20812566829931
H           26.77718117226982       -2.69755343855943        0.11246511384165
H           27.07969565500827        2.64220404395521       -0.60714158319373
H           29.02074539198311        4.52029717934699       -0.27847282638416
H           30.19556716237434        4.67811050819706        2.65985762056644
H           30.10734710798525        7.08375980623206        3.20131645896154
H           31.31182237778246        8.72192963573783        1.81810560559503
H           34.06681784529522        8.44794865961331       -2.07142452847959
H           32.71650440728135        5.52485413022212       -0.72034531431856
H           34.21154490221967        4.37124187659978        1.36410113056029
H           35.91696019601864        2.46032742228366        1.04577679896254
C           18.16452612640715        0.00874452107506        0.01102243017309
C           19.41639277803588       -0.00743346619990       -0.00723234699902
C           20.61305049306698       -0.02830374058478       -0.00911732801777
C           21.91874373439918       -0.04053217340547       -0.01143481508646
C           23.18212857016586       -0.03058231134897       -0.01618749643200
C           24.39544866951991       -0.01157795151298       -0.02220011615280
C           25.66089383172156        0.01509783698768       -0.00642815155427
C           26.79844080443961        0.02252343040602        0.01236287001184
132
 energy: -251.017999999912 gnorm: 0.255883240939 xtb: 6.5.1 (b24c23e)
Co          13.53822423656357       -0.09421287704605       -0.00925996502182
C           10.18817535005016        0.00606999570510        0.06878488700206
C           10.84757395930120        1.19333559913140        0.16985460539535
C           10.17595773286447        2.47797583728933        0.24059033091614
C           11.12265314654615        3.41670496702131        0.36650472506864
C           12.41559169871619        2.74030316487233        0.38907834697885
N           12.23208292304378        1.35646290279982        0.25183762205896
C           13.62249327268972        3.37991714743398        0.54612225100827
C           13.64380451109555        4.85738345563956        0.72534078435875
C           13.14948384782121        5.44902538009345        1.89406879967657
C           13.19460029693218        6.84462687743869        2.07195610461579
C           12.66296156480673        7.44969217881992        3.33550423544409
O           12.73153621971426        8.81199500413466        3.45979545462087
O           12.18960495652179        6.76187205098739        4.21078370524482
C           13.74244367362234        7.63186564223363        1.05219135079020
C           14.23231782988351        7.04651627253107       -0.11014573778675
C           14.18717278194789        5.66740145948309       -0.27733737472965
C           14.87720824695139        2.69504204086586        0.55374781634770
C           16.14908782574399        3.29463937351560        0.92220440017298
C           17.10275857402506        2.35250264363530        0.78318861396072
N           15.03866716215471        1.41591825979806        0.21707269039718
C           16.38931477480656        1.18632591438876        0.33421137612771
C           16.89409372048683       -0.02837114915839       -0.01252393534506
C           16.24336406155657       -1.20345644948228       -0.44721212516386
C           16.83748899266233       -2.24812536109713       -1.11269265513568
C           15.83867618677939       -3.22630080802271       -1.26503513109101
C           14.68764983685378       -2.74247988053474       -0.67966489280815
N           14.90184286912342       -1.44945604724332       -0.18537509428124
C           13.45705369473253       -3.49204907956457       -0.56893771263683
C           13.48440381635255       -4.97357911935263       -0.73262673533078
C           14.21816975060147       -5.75956751086798        0.16301151238462
C           14.26190841787294       -7.14121622895028        0.00947083590491
C           13.57899313867557       -7.75582116517714       -1.03599122883481
C           12.83295325962439       -6.98730903374023       -1.94950007499321
C           12.10836796229843       -7.66803611892978       -3.07149865912663
O           11.39424038085185       -6.87842052731605       -3.93289841641462
O           12.15116861058739       -8.86914370265860       -3.20930604549597
C           12.79437216168494       -5.59725018730847       -1.78085148134024
C           12.27150974350506       -2.87275315153998       -0.31332551756144
C           10.98210735045982       -3.51490155295116       -0.13912870512479
C           10.08752489145528       -2.52560352476423        0.02892757081759
C           10.81233268955793       -1.26875451271910       -0.02643583990591
N           12.11468689083237       -1.47215318074405       -0.21359762746626
H            9.10372745507131        0.03901703390053        0.06219549264229
H            9.11119332773587        2.66236191261603        0.19602869171095
H           10.92772012854715        4.47830090586211        0.43418014212584
H           12.73896488355153        4.81026900654160        2.67117357392100
H           12.38247104685745        9.22188225211689        4.28973800393206
H           13.78974814624794        8.70863025377379        1.16246752446706
H           14.65617428967176        7.66975078230684       -0.89133652656334
H           14.57199594346834        5.22260694426764       -1.19067274863171
H           16.32471617860794        4.30028787146724        1.26012064062521
H           18.16040908690123        2.49509731846821        0.97998516480220
H           17.86591364170681       -2.30681207628581       -1.43771866787726
H           15.93821013132457       -4.18666775417155       -1.74120120293345
H           14.75321065126058       -5.29195600666086        0.98417001996899
H           14.83856240662532       -7.74063153552400        0.70957758187587
H           13.63385757257136       -8.83592625387696       -1.13348044212459
H           10.91197353852190       -7.31809483075008       -4.67640006072608
H           12.23478294798470       -4.98972239942749       -2.48315906575311
H           10.75470302109898       -4.57326912486843       -0.13880602078989
H            9.02940892868276       -2.65694539161243        0.18616596188043
Co          31.41489696411716        0.09009381957255        0.02160573071377
C           34.76274811796672       -0.03021788126894        0.06269327728699
C           34.10350779002873       -1.18553949697860       -0.22903465063587
C           34.77511450434257       -2.42309164416684       -0.58123118972606
C           33.82869253759976       -3.35162840980416       -0.76844042572824
C           32.53579914329459       -2.71975040004404       -0.52637607858910
N           32.71928391721035       -1.36733319236594       -0.20464968208721
C           31.32982496065308       -3.37664083493345       -0.58671800344088
C           31.30737536197606       -4.83098637972498       -0.89923394143495
C           31.80146222954057       -5.77112567557031        0.01278466986572
C           31.75631029415136       -7.14830681761026       -0.27430948630073
C           32.28793240296224       -8.13232282091752        0.72277117366713
O           32.21934991415042       -9.46066992188297        0.39591135139077
O           32.76127820402919       -7.76761162722539        1.77454389108212
C           31.20843625923646       -7.55978092877353       -1.49510799078538
C           30.71852630143484       -6.62735841663136       -2.40297514391312
C           30.76371494129971       -5.26919837282506       -2.11120442334060
C           30.07709073378287       -2.73144274370968       -0.35634484563587
C           28.80176719114917       -3.41729670707200       -0.20324002337308
C           27.85218993078128       -2.47959593524896       -0.02803172304605
N           29.92422812619353       -1.41466790221212       -0.25828140928520
C           28.57910260779693       -1.23050919642286       -0.06968004738454
C           28.07896455434581        0.02524477405873       -0.00064251321119
C           28.72250436400927        1.27978147981786       -0.03318084602550
C           28.11884533190535        2.48428063348474       -0.31839468935854
C           29.11289041220593        3.46077584495922       -0.14386038775929
C           30.26566605734353        2.81409868400057        0.25178232991678
N           30.05816013149816        1.43121836824862        0.29923741835519
C           31.49440886508931        3.48542090803032        0.60087117273447
C           31.46669137998918        4.93886467855641        0.92946234151650
C           30.73273712434955        5.38941722032763        2.03244537545466
C           30.68896807943981        6.74555129726465        2.33797912416768
C           31.37188858765569        7.66753351760140        1.55015666846335
C           32.11796455563298        7.23908734365339        0.43592146803804
C           32.84251633869983        8.24847904957343       -0.40265689195346
O           33.55664755765807        7.78301710590117       -1.47453207205384
O           32.79972470939157        9.42886618629951       -0.14118191907465
C           32.15657784883635        5.87011687301216        0.14190462085797
C           32.67986955855253        2.81593852357561        0.64064165440528
C           33.96890115862709        3.36604172605738        1.01468898699687
C           34.86349793298469        2.37591746974829        0.85081669610868
C           34.13889929270091        1.20597488390863        0.38853271905996
N           32.83649337890262        1.45985940919523        0.27786670881579
H           35.84719545906695       -0.05921544454524        0.04574518603785
H           35.83984070148816       -2.58274378734768       -0.68347680237186
H           34.02337252437227       -4.37719055665812       -1.05071629191630
H           32.21193622002437       -5.42058165756690        0.95569760126909
H           32.56842297848799      -10.11882120362813        1.04676705734983
H           31.16112742792033       -8.61360514906802       -1.74207354840081
H           30.29468451724147       -6.96164545420161       -3.34471932299060
H           30.37891558287610       -4.55067971543841       -2.82941094746548
H           28.62560262294411       -4.47811888851778       -0.21177400841760
H           26.79254920095753       -2.67651540674715        0.11189280926779
H           27.08787908271737        2.64393160233446       -0.60597863180763
H           29.01219036147031        4.52370071752187       -0.28067515171960