156
 energy: -244.897460652997 gnorm: 1.634736707704 xtb: 6.5.1 (b24c23e)
Cu          13.46912500000000       -0.00695100000000       -0.00474700000000
C           10.09525700000000        0.12556700000000        0.03453600000000
C           10.76397300000000        1.17820700000000        0.51314800000000
C           10.12065600000000        2.35973600000000        1.07593300000000
C           11.06767000000000        3.21219900000000        1.42105700000000
C           12.36811400000000        2.61490400000000        1.09067200000000
N           12.18354700000000        1.32071100000000        0.51824600000000
C           13.56187300000000        3.21243700000000        1.27298900000000
C           13.60742800000000        4.58033100000000        1.85254900000000
C           13.52369400000000        5.71356900000000        1.00935000000000
C           13.38589900000000        5.56311900000000       -0.48368300000000
C           13.56663500000000        6.99884500000000        1.57088900000000
C           13.68623200000000        7.17150400000000        2.95475700000000
C           13.77213000000000        8.55144500000000        3.53823100000000
C           13.79498600000000        6.04989400000000        3.78490300000000
C           13.74817700000000        4.75379000000000        3.24940100000000
C           13.85954100000000        3.56757300000000        4.17189700000000
C           14.85495600000000        2.57298900000000        0.91966000000000
C           16.14709300000000        3.26368800000000        0.99185100000000
C           17.08229100000000        2.40470200000000        0.64382700000000
N           14.99234700000000        1.33769400000000        0.54425800000000
C           16.39454300000000        1.15293000000000        0.34795600000000
C           16.98954200000000       -0.00080100000000       -0.00056000000000
C           16.23229500000000       -1.24276300000000       -0.28819200000000
C           16.78858200000000       -2.44162700000000       -0.41106700000000
C           15.73960000000000       -3.37069300000000       -0.77767700000000
C           14.60821900000000       -2.68034300000000       -0.85415900000000
N           14.82852100000000       -1.30192300000000       -0.54805000000000
C           13.30653500000000       -3.25996500000000       -1.27421800000000
C           13.29605700000000       -4.62207000000000       -1.87253600000000
C           13.53472600000000       -4.78976400000000       -3.25672300000000
C           13.80245400000000       -3.60469700000000       -4.14817300000000
C           13.53143100000000       -6.07968700000000       -3.80878700000000
C           13.29268100000000       -7.20078800000000       -3.00661200000000
C           13.26710700000000       -8.56681100000000       -3.62742300000000
C           13.04356000000000       -7.03318300000000       -1.63895500000000
C           13.05425900000000       -5.75513400000000       -1.05965000000000
C           12.79318100000000       -5.61145700000000        0.41770400000000
C           12.14486100000000       -2.59722500000000       -1.13071900000000
C           10.82486200000000       -3.09280100000000       -1.51352000000000
C            9.96372300000000       -2.16568600000000       -1.14241200000000
C           10.72588200000000       -1.07719800000000       -0.53191600000000
N           11.99916000000000       -1.31822900000000       -0.51884700000000
H            9.01208200000000        0.15092400000000        0.05686500000000
H            9.05756900000000        2.52571700000000        1.19384500000000
H           10.88982700000000        4.18351000000000        1.86433300000000
H           12.43427700000000        5.04372700000000       -0.72183900000000
H           14.23593000000000        4.97116000000000       -0.88324200000000
H           13.38137200000000        6.54745100000000       -0.99810600000000
H           13.50742300000000        7.87082900000000        0.93002400000000
H           13.34827000000000        8.57015100000000        4.56499000000000
H           14.83495100000000        8.86936600000000        3.57892400000000
H           13.20022800000000        9.27601900000000        2.92007900000000
H           13.91434800000000        6.18941800000000        4.85301400000000
H           14.77453600000000        2.98820100000000        3.92770100000000
H           13.91840000000000        3.87791600000000        5.23646300000000
H           12.97024500000000        2.91346000000000        4.05394900000000
H           16.32274400000000        4.29229900000000        1.27837000000000
H           18.14247200000000        2.61647200000000        0.60119100000000
H           17.83419100000000       -2.68878200000000       -0.28724100000000
H           15.86694200000000       -4.42684800000000       -0.97690900000000
H           12.96735400000000       -2.87675000000000       -4.07030500000000
H           13.89827800000000       -3.90416900000000       -5.21333400000000
H           14.74801600000000       -3.11137300000000       -3.83997600000000
H           13.71319000000000       -6.21613100000000       -4.86868800000000
H           14.16805600000000       -8.71084900000000       -4.26181500000000
H           13.25798700000000       -9.36497300000000       -2.85408000000000
H           12.35851100000000       -8.66975300000000       -4.25808500000000
H           12.84470200000000       -7.90206100000000       -1.02270800000000
H           11.83867900000000       -5.06847500000000        0.57814600000000
H           13.62074600000000       -5.04584200000000        0.89491900000000
H           12.72043600000000       -6.59882500000000        0.92115400000000
H           10.57702200000000       -4.03059100000000       -1.99367100000000
H            8.89050100000000       -2.21650900000000       -1.27061700000000
Cu          31.55714700000000        0.00653500000000        0.00067700000000
C           34.93101500000000       -0.11628500000000       -0.06272300000000
C           34.26229899999999       -1.20720800000000       -0.44613600000000
C           34.90561599999999       -2.44941100000000       -0.85804500000000
C           33.95860200000000       -3.30347400000000       -1.19919300000000
C           32.65815800000000       -2.64374000000000       -1.02406900000000
N           32.84272400000000       -1.31356600000000       -0.54111700000000
C           31.46439900000000       -3.20113300000000       -1.30620100000000
C           31.41884400000000       -4.58942900000000       -1.83503000000000
C           31.50257800000000       -4.82338400000000       -3.22804100000000
C           31.64037300000000       -3.68115400000000       -4.20122800000000
C           31.45963700000000       -6.13958700000000       -3.71267600000000
C           31.34003999999999       -7.22226500000000       -2.83363600000000
C           31.25414200000000       -8.62196200000000       -3.36798200000000
C           31.23128600000000       -6.98766200000000       -1.45809500000000
C           31.27809500000000       -5.68167200000000       -0.94717600000000
C           31.16673100000000       -5.46438700000000        0.53973300000000
C           30.17131600000000       -2.49509900000000       -1.11845000000000
C           28.87917900000000       -3.04347600000000       -1.54454800000000
C           27.94398100000000       -2.18270000000000       -1.20097700000000
N           30.03392500000000       -1.34383000000000       -0.53410500000000
C           28.63172900000000       -1.07460200000000       -0.54783700000000
C           28.03673000000000       -0.00080100000000       -0.00056000000000
C           28.79397700000000        1.09451300000000        0.65173300000000
C           28.23769000000000        2.04466300000000        1.39307600000000
C           29.28667200000000        2.96887700000000        1.77175400000000
C           30.41805300000000        2.52368200000000        1.23861700000000
N           30.19775100000000        1.31710900000000        0.50518200000000
C           31.71973700000000        3.23274600000000        1.33679800000000
C           31.73021500000000        4.62985100000000        1.84808400000000
C           31.49154500000000        5.70916600000000        0.96537700000000
C           31.22381800000000        5.47121700000000       -0.49833300000000
C           31.49484100000000        7.02216300000000        1.46006600000000
C           31.73359100000000        7.27576300000000        2.81507100000000
C           31.75916500000000        8.69126700000000        3.31283900000000
C           31.98271200000000        6.20795500000000        3.68591200000000
C           31.97201300000000        4.88466800000000        3.21910100000000
C           32.23309100000000        3.75818000000000        4.18566300000000
C           32.88141100000000        2.65517500000000        0.98151100000000
C           34.20141000000000        3.27779900000000        1.04838900000000
C           35.06254900000000        2.35188000000000        0.67430800000000
C           34.30039000000000        1.14378100000000        0.36124200000000
N           33.02711200000000        1.30865700000000        0.53754400000000
H           36.01418899999999       -0.15004000000000       -0.06416700000000
H           35.96870300000000       -2.65081400000000       -0.88787500000000
H           34.13644500000000       -4.31124700000000       -1.55179700000000
H           32.59199500000000       -3.14148800000000       -4.01348900000000
H           30.79034200000000       -2.97738100000000       -4.07971400000000
H           31.64490000000000       -4.03528400000000       -5.25390700000000
H           31.51884900000000       -6.32510800000000       -4.77881200000000
H           31.67800200000000       -9.34631400000000       -2.64004000000000
H           30.19132100000000       -8.87954200000000       -3.55872400000000
H           31.82604400000000       -8.71684000000000       -4.31567200000000
H           31.11192400000000       -7.82782300000000       -0.78396000000000
H           30.25173600000000       -4.87725800000000        0.76464000000000
H           31.10787200000000       -6.42535400000000        1.09304700000000
H           32.05602700000000       -4.91073100000000        0.90748400000000
H           28.70352800000000       -3.98407000000000       -2.04993600000000
H           26.88380000000000       -2.30599100000000       -1.37835600000000
H           27.19208100000000        2.13727900000000        1.65353900000000
H           29.15933000000000        3.86891400000000        2.35919700000000
H           32.05891800000000        4.89203200000000       -0.94612200000000
H           31.12799400000000        6.42475100000000       -1.05960300000000
H           30.27825600000000        4.90187000000000       -0.61748500000000
H           31.31308200000000        7.85441700000000        0.78972200000000
H           30.85821600000000        9.23440900000000        2.95479400000000
H           31.76828500000000        8.73180100000000        4.42346000000000
H           32.66776100000000        9.20217200000000        2.92903400000000
H           32.18157000000000        6.40827800000000        4.73213400000000
H           33.18759300000000        3.25529500000000        3.92551400000000
H           31.40552599999999        3.01965200000000        4.13842400000000
H           32.30583600000000        4.12209600000000        5.23252600000000
H           34.44925000000000        4.28691400000000        1.35117800000000
H           36.13577099999999        2.47731200000000        0.61698300000000
C           18.01277300000000        0.01481800000000        0.01036500000000
C           19.47099900000000       -0.00701800000000       -0.00750800000000
C           20.60492700000000       -0.02777200000000       -0.00899900000000
C           21.96630900000000       -0.04036200000000       -0.01119000000000
C           23.24052800000000       -0.03005500000000       -0.01595500000000
C           24.42899000000000       -0.01125700000000       -0.02211100000000
C           25.78135100000000        0.01352700000000       -0.00624300000000
C           26.88161800000000        0.01481800000000        0.01036500000000
156
 energy: -245.323064821415 gnorm: 0.460933167573 xtb: 6.5.1 (b24c23e)
Cu          13.47117800933263       -0.00529837075133       -0.00320895609732
C           10.09558097067071        0.11229151635202        0.02840356518656
C           10.77011576475661        1.17989468710835        0.51438908247381
C           10.11984293960206        2.35440757648321        1.07337860785615
C           11.07580153099052        3.21386545877970        1.42205636932662
C           12.36627742877658        2.61120302601095        1.08999858760761
N           12.16906009924003        1.33324213886777        0.52099725086099
C           13.57314688929989        3.21306461948090        1.27199045824704
C           13.60969243705353        4.58472627741995        1.85384807383221
C           13.52389231306984        5.71456023802035        1.01247409700892
C           13.38607913607915        5.56250437762562       -0.48423487765464
C           13.56643929790652        6.99538940111738        1.57313239643056
C           13.68777054691359        7.16946980220126        2.95369931870746
C           13.77081074446566        8.55322703395871        3.53911399902196
C           13.79398125294681        6.04904842501133        3.78092520179948
C           13.74835151539516        4.75663667760352        3.24775293387243
C           13.85938879354443        3.56673865464888        4.17175201693745
C           14.84697111354111        2.59397506147091        0.92792323122969
C           16.13154517373954        3.27321933097099        0.99778178218729
C           17.07722064429196        2.39459717872144        0.64031181574101
N           14.99267407449028        1.34040954068448        0.54313109033023
C           16.35611260337865        1.17835693426218        0.35434760574706
C           16.89376448066643       -0.01366642736590       -0.00402198031251
C           16.19699196968229       -1.24748044026180       -0.29170459619078
C           16.78661884878149       -2.45763464153109       -0.41471620787473
C           15.75435813928619       -3.37467364054744       -0.77751217621931
C           14.59614728762422       -2.67357589498489       -0.85703159165319
N           14.82535969019111       -1.31112337257879       -0.54948365506013
C           13.31636670948683       -3.25642326550987       -1.27210597931417
C           13.29963589915996       -4.62480870054300       -1.87275720233472
C           13.53488061655562       -4.79221544666730       -3.25493468047847
C           13.80226040049843       -3.60378319637660       -4.14807260964383
C           13.53063526736337       -6.07860855601415       -3.80458881451383
C           13.29165318141697       -7.19897467538897       -3.00522468757041
C           13.26783210619291       -8.56878101464228       -3.62780377195851
C           13.04452890003652       -7.02952404358510       -1.64110811476652
C           13.05454927843461       -5.75533912819797       -1.06269245470604
C           12.79353833208302       -5.61081921490558        0.41835458344867
C           12.14445911511129       -2.59629665771147       -1.13090414962951
C           10.83138856681557       -3.09322928541274       -1.51298132644133
C            9.95710723467160       -2.15706909458964       -1.13864254982440
C           10.71059461858121       -1.06941309913173       -0.52849809840311
N           12.00072644231197       -1.32524195126002       -0.52152302714860
H            9.01240994364816        0.14824608483975        0.05508826125351
H            9.05770332446419        2.52120418664848        1.19195826944053
H           10.89552324436232        4.18383855300319        1.86434361926397
H           12.43941831237386        5.04511654854336       -0.72174693361575
H           14.23106589714885        4.97278481962226       -0.88212779410207
H           13.38134031261980        6.54249283495813       -0.99454546917137
H           13.50719810570001        7.86934798736959        0.93043321799199
H           13.35132308463783        8.57049443675340        4.56057272664823
H           14.82932467735705        8.86915417269426        3.57935235395680
H           13.20391308679625        9.27324015985517        2.92284093675673
H           13.91383935860513        6.18864140569169        4.85170967965038
H           14.76950945172302        2.98951761893846        3.92881857026616
H           13.91819881438081        3.87703305392014        5.23044332186888
H           12.97524711528210        2.91514000909852        4.05419345052667
H           16.31795171863751        4.29517633002392        1.27962616117147
H           18.14008923271518        2.60850971342490        0.59891857123830
H           17.83380437750461       -2.68938197095954       -0.28720583326435
H           15.86984736229415       -4.42763943329685       -0.97615226334666
H           12.97224669775799       -2.87889292023303       -4.07025966406759
H           13.89778334217506       -3.90336588680570       -5.20727311895661
H           14.74293310037778       -3.11224279705710       -3.84141032665500
H           13.71307810667993       -6.21521908813790       -4.86717997470232
H           14.16294492139659       -8.71091094894465       -4.25983173781063
H           13.25750798095359       -9.36102597408845       -2.85806408398202
H           12.36360267142237       -8.67050686528105       -4.25567292612073
H           12.84521023231458       -7.90056032679511       -1.02309670887931
H           11.84373869794206       -5.07008285558005        0.57853464360636
H           13.61599197941479       -5.04726487667144        0.89333819731466
H           12.72069217411948       -6.59385625016521        0.91755347287273
H           10.58242424352559       -4.03017284583414       -1.99325548852962
H            8.88857675112261       -2.21265464569997       -1.26904469380784
Cu          31.55481911874885        0.00477624462640        0.00046044067820
C           34.93046780249458       -0.10292642705170       -0.05821085012635
C           34.25640152448455       -1.20912550597270       -0.44659592033329
C           34.90654403143134       -2.44416232622582       -0.85625526477949
C           33.95093687864223       -3.30530157594284       -1.19993852377842
C           32.66010245842534       -2.63970003107044       -1.02187654210708
N           32.85718454392699       -1.32592840369428       -0.54677656893533
C           31.45257126198285       -3.20057233371521       -1.30697840467931
C           31.41646301542266       -4.59350818945179       -1.83711897431048
C           31.50237413178308       -4.82626399434833       -3.22648064154464
C           31.64019753090823       -3.68033001514428       -4.20120616479917
C           31.45983418647822       -6.13865128977578       -3.70866929541929
C           31.33849478348380       -7.22008693193036       -2.83299950856967
C           31.25546817378225       -8.62385598359022       -3.36857717403019
C           31.23229022756177       -6.98431081231875       -1.46038020010252
C           31.27792081538949       -5.68261346068491       -0.95032429333056
C           31.16688611516463       -5.46368978604716        0.54021028400093
C           30.17998886230394       -2.51335209000102       -1.12566674853023
C           28.89156960235172       -3.05313212782092       -1.54714302923006
C           27.94747560572564       -2.17522171422470       -1.19720731511316
N           30.03372431858218       -1.34509107948015       -0.53770384404655
C           28.66340631150948       -1.08926601653521       -0.55578519434768
C           28.12745932788804        0.00706739052662        0.00628554811998
C           28.82341509497900        1.09432605254181        0.64843155743484
C           28.23904461526711        2.05958767881653        1.40150578094886
C           29.27036140837440        2.97106649785984        1.77462930162868
C           30.43046207090405        2.51994593047136        1.23125383587820
N           30.19955889905853        1.32415605729439        0.51128353942742
C           31.70899090476234        3.22848527557306        1.33579422414457
C           31.72658137282595        4.63192028012286        1.84983871600101
C           31.49139677111842        5.70967302113267        0.96834998062489
C           31.22400902912710        5.47048309551234       -0.49889697928232
C           31.49564143528688        7.01846313671993        1.46235333818471
C           31.73461940942868        7.27350307705604        2.81481846464835
C           31.75843877458751        8.69294888371847        3.31392941842871
C           31.98173957127280        6.20680238115177        3.68181988596102
C           31.97173240749731        4.88690834825025        3.21705508845905
C           32.23273111703990        3.75726498175771        4.18569417165963
C           32.88218232469683        2.65440950803394        0.98067638094719
C           34.19484068656783        3.27777428584457        1.04920535846354
C           35.06931073043980        2.34303256953933        0.67110013411323
C           34.31561926467180        1.13626668604215        0.35855040308392
N           33.02609071726356        1.31655929272673        0.53991312083116
H           36.01380300412961       -0.14697993578520       -0.06355185574960
H           35.96862572006049       -2.64633573533304       -0.88617767597796
H           34.13080310646486       -4.31152436727543       -1.55203290743523
H           32.58685002606951       -3.14255312640301       -4.01439473837659
H           30.79522216609899       -2.97931749826302       -4.08006141173457
H           31.64493217478794       -4.03417005094934       -5.24789681789991
H           31.51907402946328       -6.32431919922472       -4.77748615908190
H           31.67494572341038       -9.34349541677903       -2.64346560829251
H           30.19695401185351       -8.87967535071025       -3.55826367118788
H           31.82235562506267       -8.71674129286247       -4.31175075457474
H           31.11243306061704       -7.82635600104074       -0.78436625072450
H           30.25677222341669       -4.87899858282624        0.76456281858586
H           31.10807377485540       -6.42054241068161        1.08930867582357
H           32.05101727157921       -4.91211959072444        0.90650419040540
H           28.70799943977083       -3.98691246133856       -2.05089299239089
H           26.88570055737790       -2.29967017718352       -1.37503932749556
H           27.19248243003249        2.13832412438405        1.65449179016572
H           29.15631002708047        3.86892062310747        2.36026762663082
H           32.05402358158567        4.89354912892880       -0.94461055066925
H           31.12848904845431        6.41997200363760       -1.05577932978586
H           30.28334310217150        4.90349411072518       -0.61792019794334
H           31.31319457748131        7.85270093539657        0.79018172654358
H           30.86332976524412        9.23307560264255        2.95626703959483
H           31.76876406507484        8.73170916112402        4.41785017193799
H           32.66266707564223        9.20104170359810        2.93129503873350
H           32.18106002263854        6.40745858621750        4.73080816050434
H           33.18253422389272        3.25618381841047        3.92690949506684
H           31.41028062120476        3.02177282286123        4.13827050802641
H           32.30557908012754        4.12100354683344        5.22648367980265
H           34.44383675208671        4.28633806976944        1.35121162370466
H           36.13775238319888        2.47344365087366        0.61546804307143
C           18.16109914081887        0.00426718344256        0.00688843194115
C           19.43683319664903       -0.00833559384184       -0.00833952131274
C           20.66081137907796       -0.02834504792054       -0.00883463117721
C           21.94760451105072       -0.04036875277716       -0.01131104835791
C           23.21128024289636       -0.03063700635770       -0.01619422533283
C           24.42620296874882       -0.01182181098953       -0.02208102613666
C           25.69496020955945        0.01666041716869       -0.00625920521921
C           26.87450376273255        0.02611827117641        0.01450335317301
156
 energy: -245.416343183387 gnorm: 0.180430098536 xtb: 6.5.1 (b24c23e)
Cu          13.47164796502440        0.00040028360822       -0.00223568649830
C           10.09705607315048        0.09676207340555        0.02076524611578
C           10.77278556193682        1.18123554933074        0.51452024965912
C           10.12111807534046        2.34818870283732        1.07037461985511
C           11.08585609548887        3.21508367021778        1.42245563686928
C           12.36367783110607        2.61006359534119        1.09011069517626
N           12.14565481427500        1.35547921770332        0.53161863838343
C           13.58620968622237        3.21721977330503        1.27243454420697
C           13.61503407018578        4.59175875700005        1.85549343289089
C           13.52471893966607        5.71605636377153        1.01733477370385
C           13.38682113978465        5.56041689955743       -0.47997888706271
C           13.56601796995182        6.99136351229367        1.57648495380647
C           13.69155436477292        7.16730412537498        2.95229022214825
C           13.76890512419756        8.55276453149954        3.53909710249341
C           13.79229299444034        6.04842103722841        3.77550439799604
C           13.74953143089863        4.76111324062913        3.24443848931823
C           13.85882441951974        3.56843065344215        4.16685166967968
C           14.83375434697383        2.62302948790584        0.93973783679193
C           16.11415795534182        3.28800059766625        1.00679000315156
C           17.06047505153567        2.39185032087067        0.64022941714201
N           14.99462367745898        1.35683844445467        0.53766109597821
C           16.33894263690234        1.18365188410860        0.35438761856433
C           16.87553020982567       -0.03416972156051       -0.00720026680325
C           16.17815319633914       -1.24543404720195       -0.29927314387611
C           16.78406665418867       -2.48349111920641       -0.42566315895644
C           15.77745256607397       -3.38061354054623       -0.78293147496842
C           14.58846341002143       -2.66939129641337       -0.86461535451887
N           14.82513018116513       -1.33050867392203       -0.54525703320145
C           13.33517846139689       -3.24861859860167       -1.26924399551759
C           13.31324180533628       -4.62490040759693       -1.86934853468872
C           13.53790034368847       -4.79416597700395       -3.24891985870688
C           13.80154721697172       -3.60482547823954       -4.14317384597959
C           13.52882770655306       -6.07587787635005       -3.79721750854317
C           13.28917179357345       -7.19562650153031       -3.00317305475776
C           13.26888832899377       -8.56765509024803       -3.62674121705451
C           13.04571645938274       -7.02266172739533       -1.64374782894193
C           13.05740207028400       -5.75250845606680       -1.06679307979104
C           12.79534740974992       -5.60798065532789        0.41470302543967
C           12.14373641047952       -2.59176250609749       -1.13071565177977
C           10.83798015913818       -3.08755431167350       -1.50856801078023
C            9.94667946095281       -2.14718707762648       -1.13284981311364
C           10.68909563835953       -1.06425874751703       -0.52500133648745
N           11.99471692898097       -1.33570087345253       -0.52955862881183
H            9.01380649351937        0.13988908775405        0.04887993744617
H            9.05867840512779        2.50728889022027        1.18604434935387
H           10.91412989859360        4.18512777098409        1.86470278748007
H           12.44966476570421        5.04538525388901       -0.72134727340621
H           14.22149460879407        4.97342218014920       -0.87979581772390
H           13.38140045229488        6.53324523747421       -0.98465217538573
H           13.50583494679801        7.86448131166861        0.93194406272320
H           13.35758936722457        8.57080000957437        4.55370017698754
H           14.81814555901253        8.87066559178874        3.58105480995996
H           13.21110633044639        9.26880642057119        2.92672082550313
H           13.91129887892079        6.18596103814644        4.84720249991230
H           14.75948685608760        2.99037197923148        3.92936240546552
H           13.91769793193192        3.87777650553405        5.21665063401346
H           12.98498321696723        2.91692777712017        4.05234867399900
H           16.30424120987751        4.30800966350917        1.28622428572153
H           18.12521118179740        2.59076254790132        0.59403350469698
H           17.83166463812053       -2.69902238679459       -0.28799410698293
H           15.88084682440424       -4.43412592799036       -0.97466041200313
H           12.98178286300727       -2.88141445161471       -4.06766160364978
H           13.89624488336949       -3.90444696444237       -5.19328541886638
H           14.73320011717381       -3.11162528633708       -3.84282168789904
H           13.71212735822572       -6.21108900753254       -4.86077349461157
H           14.15325214077581       -8.71123359702125       -4.25754122206145
H           13.25609924736488       -9.35336103708887       -2.86423617577246
H           12.37383391086549       -8.67327100565770       -4.25198406671717
H           12.84701115354886       -7.89388858301120       -1.02418630392774