132
 energy: -245.323936301685 gnorm: 1.023152289145 xtb: 6.5.1 (b24c23e)
Zn          15.30413300000000        0.00347100000000        0.01552800000000
C           11.88610900000000       -0.10354400000000        0.10474900000000
C           12.55140100000000       -0.20513700000000        1.25888100000000
C           11.90353900000000       -0.34766600000000        2.55746600000000
C           12.84566400000000       -0.36868100000000        3.48191000000000
C           14.14870200000000       -0.23843100000000        2.81608700000000
N           13.96922300000000       -0.13976800000000        1.40301900000000
C           15.33785900000000       -0.16750100000000        3.44721200000000
C           16.62934400000000       -0.00783100000000        2.72962900000000
C           17.91607000000000        0.20899100000000        3.40213500000000
C           18.85055500000000        0.26660500000000        2.47536100000000
N           16.77188000000000       -0.08635800000000        1.44183100000000
C           18.16900400000000        0.07949600000000        1.20023300000000
C           18.76533000000000       -0.00097400000000       -0.00068200000000
C           18.00759200000000       -0.21102600000000       -1.25539600000000
C           18.55069900000000       -0.62363300000000       -2.39385700000000
C           17.50690100000000       -0.61191800000000       -3.39943800000000
C           16.39472900000000       -0.18879500000000       -2.81003600000000
C           15.10673200000000        0.03419800000000       -3.51620400000000
C           15.12451900000000        0.17014000000000       -4.99319300000000
C           14.48137500000000       -0.77687500000000       -5.80419200000000
C           14.51683600000000       -0.65445500000000       -7.19600300000000
C           15.20315400000000        0.41416100000000       -7.80050400000000
C           15.24420500000000        0.54820600000000       -9.27334100000000
O           15.92820300000000        1.60832600000000       -9.86293100000000
O           14.66108000000000       -0.29455800000000      -10.00792600000000
C           15.85429900000000        1.35498900000000       -6.98396800000000
C           15.81731700000000        1.23172400000000       -5.59216100000000
C           13.94021400000000        0.11744800000000       -2.84806900000000
C           12.62458000000000        0.36967500000000       -3.43370200000000
C           11.76313700000000        0.32047400000000       -2.43630900000000
C           12.51931500000000        0.05061000000000       -1.21470100000000
N           13.78929500000000       -0.06908300000000       -1.44227500000000
N           16.62038000000000        0.08315900000000       -1.42544000000000
C           15.37760800000000       -0.23917900000000        4.92304800000000
C           15.31338500000000       -1.48015300000000        5.57010000000000
C           15.35270100000000       -1.54862400000000        6.96561800000000
C           15.45806700000000       -0.37493100000000        7.73437800000000
C           15.50060800000000       -0.44170100000000        9.21172100000000
O           15.60379200000000        0.72536600000000        9.96442500000000
O           15.44403200000000       -1.55404300000000        9.80275100000000
C           15.52291200000000        0.86684300000000        7.07798000000000
C           15.48287600000000        0.93348400000000        5.68236000000000
H           10.80286200000000       -0.12216900000000        0.13292600000000
H           10.84009900000000       -0.41589600000000        2.74768300000000
H           12.66155500000000       -0.45548000000000        4.54498700000000
H           18.09106500000000        0.30184000000000        4.46581000000000
H           19.90689600000000        0.41182000000000        2.65829800000000
H           19.58410800000000       -0.89872900000000       -2.55672400000000
H           17.62375300000000       -0.87779100000000       -4.44207800000000
H           13.95560500000000       -1.61187400000000       -5.35737500000000
H           14.00953300000000       -1.39794300000000       -7.79798300000000
H           15.96244600000000        1.70948600000000      -10.87032900000000
H           16.39372400000000        2.18674200000000       -7.41921300000000
H           16.32640900000000        1.96602600000000       -4.97975300000000
H           12.37759100000000        0.56368000000000       -4.46914200000000
H           10.69385700000000        0.46358600000000       -2.52060200000000
H           15.23269800000000       -2.39320700000000        4.99294700000000
H           15.30098200000000       -2.51972700000000        7.44182000000000
H           15.63371600000000        0.69090800000000       10.97644500000000
H           15.60471400000000        1.78765700000000        7.64155500000000
H           15.53419300000000        1.89815000000000        5.19237100000000
Zn          33.59653000000000        0.00531100000000       -0.01627000000000
C           37.01455499999999       -0.09070200000000       -0.11723600000000
C           36.34926300000000       -0.05853300000000       -1.27538500000000
C           36.99712500000000       -0.05037000000000       -2.58174200000000
C           36.05500000000000        0.03535400000000       -3.50244300000000
C           34.75196200000000        0.08795800000000       -2.82604200000000
N           34.93144100000000        0.02302000000000       -1.41102300000000
C           33.56280500000000        0.23119200000000       -3.44477900000000
C           32.27132000000000        0.30705100000000       -2.71357000000000
C           30.98459400000000        0.59997400000000       -3.35658800000000
C           30.05010800000000        0.55033600000000       -2.42935300000000
N           32.12878400000000        0.08055000000000       -1.44341800000000
C           30.73166000000000        0.21743800000000       -1.18430700000000
C           30.13533300000000       -0.00097400000000       -0.00068200000000
C           30.89307200000000       -0.35430700000000        1.22144100000000
C           30.34996500000000       -0.89544000000000        2.30473000000000
C           31.39376200000000       -0.99975900000000        3.30495400000000
C           32.50593500000000       -0.51149300000000        2.76827400000000
C           33.79393100000000       -0.37141700000000        3.49544500000000
C           33.77614500000000       -0.40669600000000        4.97825800000000
C           34.41928800000000       -1.44091000000000        5.67464500000000
C           34.38382800000000       -1.47979900000000        7.07128800000000
C           33.69751000000000       -0.48801800000000        7.79498100000000
C           33.65645900000000       -0.52470200000000        9.27345000000000
O           32.97246100000000        0.46036000000000        9.98135200000000
O           34.23958300000000       -1.44655000000000        9.90595400000000
C           33.04636500000000        0.54069100000000        7.09238000000000
C           33.08334700000000        0.57873900000000        5.69564400000000
C           34.96045000000000       -0.21167800000000        2.84136800000000
C           36.27608400000000       -0.02866400000000        3.45217900000000
C           37.13752700000000        0.03747400000000        2.45576500000000
C           36.38134900000000       -0.08972400000000        1.21118800000000
N           35.11136800000000       -0.23486100000000        1.42344100000000
N           32.28028400000000       -0.08169300000000        1.42427500000000
C           33.52305600000000        0.33017300000000       -4.91903500000000
C           33.58727900000000       -0.82791100000000       -5.70486900000000
C           33.54796300000000       -0.73500600000000       -7.09897400000000
C           33.44259600000000        0.51950500000000       -7.72726500000000
C           33.40005600000000        0.62353500000000       -9.20245300000000
O           33.29687100000000        1.86961200000000       -9.81556000000000
O           33.45663200000000       -0.41323400000000       -9.91780600000000
C           33.37775200000000        1.67730600000000       -6.93205500000000
C           33.41778800000000        1.58257100000000       -5.53806100000000
H           38.09780200000000       -0.10595400000000       -0.14737300000000
H           38.06056499999999       -0.09621000000000       -2.77855900000000
H           36.23910900000000        0.07172000000000       -4.56843700000000
H           30.80959900000000        0.81485800000000       -4.40246100000000
H           28.99376800000000        0.71567800000000       -2.59432400000000
H           29.31655599999999       -1.18748200000000        2.43478900000000
H           31.27691100000000       -1.38408600000000        4.30998100000000
H           34.94505900000000       -2.21881600000000        5.13452400000000
H           34.89113000000000       -2.28774300000000        7.58352000000000
H           32.93821800000000        0.44468000000000       10.99369500000000
H           32.50694000000000        1.31670700000000        7.62063200000000
H           32.57425400000000        1.37876000000000        5.17199400000000
H           36.52307300000000        0.04464800000000        4.50308200000000
H           38.20680700000000        0.16991100000000        2.55599900000000
H           33.66796600000000       -1.80142600000000       -5.23685200000000
H           33.59968200000000       -1.64471900000000       -7.68397800000000
H           33.26694700000000        1.95208200000000      -10.82480200000000
H           33.29595000000000        2.65696400000000       -7.38569000000000
H           33.36647100000000        2.48430100000000       -4.94010200000000
C           19.94802700000000        0.01510500000000        0.01056600000000
C           21.40625300000000       -0.00673200000000       -0.00730800000000
C           22.54018100000000       -0.02748500000000       -0.00879800000000
C           23.90156300000000       -0.04007500000000       -0.01099000000000
C           25.17578200000000       -0.02976900000000       -0.01575500000000
C           26.36424400000000       -0.01097100000000       -0.02191100000000
C           27.71660500000000        0.01381400000000       -0.00604300000000
C           28.81687200000000        0.01510500000000        0.01056600000000
132
 energy: -245.581644924268 gnorm: 0.399980851590 xtb: 6.5.1 (b24c23e)
Zn          15.30156318459208        0.00065001682331        0.01544842789325
C           11.88659296098533       -0.10162984174952        0.08799569225296
C           12.55658175726442       -0.20471420519817        1.26074671352055
C           11.90272709531611       -0.34715663543642        2.55121183332833
C           12.85494499939224       -0.36833030648042        3.48450122057764
C           14.14615337122290       -0.23872700577244        2.81120129757823
N           13.94868026025439       -0.14308072175927        1.42369384230277
C           15.35270898577749       -0.16604293521397        3.44529662802674
C           16.62139149623182       -0.00817851722815        2.75558226179712
C           17.89968642655683        0.20683874922152        3.41789631808392
C           18.84413462666387        0.26543398348246        2.46901094821079
N           16.77919469860880       -0.08097010253754        1.44779742646339
C           18.14552092371368        0.08292134940979        1.22122492828308
C           18.73502050787783       -0.00475143981310       -0.01498082663512
C           17.98402604378192       -0.20524403606206       -1.25827146299757
C           18.55033172487117       -0.62725355356225       -2.41725393609225
C           17.52677404134437       -0.61404065916488       -3.40479635321131
C           16.38488641038615       -0.17946348177487       -2.80296772859656
C           15.11901069462305        0.03401617161104       -3.50895404599929
C           15.13189969587502        0.16686801052731       -4.99172469017835
C           14.48346595471897       -0.77134464954377       -5.80829681743453
C           14.52024588128243       -0.64848974246858       -7.19625278501144
C           15.20692630483510        0.42009695242349       -7.80511460366772
C           15.23959644143418        0.54173424143092       -9.29101634023802
O           15.92256328720237        1.59938032394043       -9.85080301945437
O           14.67157071526662       -0.27890633252788      -10.00096331383060
C           15.85316739728351        1.35405686143084       -6.98180213900207
C           15.81745581420331        1.22855240578419       -5.59566258602662
C           13.93799753383887        0.11780692016612       -2.84749566942897
C           12.63060861030100        0.36834064382285       -3.43360868540403
C           11.75278106351675        0.31949352321160       -2.42602770078460
C           12.50073771832412        0.04957059247574       -1.20750044094857
N           13.78664374541040       -0.06325042125331       -1.45389889008779
N           16.62288874324252        0.07741446998048       -1.43553474960595
C           15.38166008999587       -0.23861544572932        4.92655467104198
C           15.31341231018057       -1.47568682851524        5.57692568119645
C           15.35288873354739       -1.54217546844713        6.96793134434087
C           15.45867478383290       -0.36861679413442        7.74013351678328
C           15.50052842842262       -0.45197510281412        9.22819413821199
O           15.60273845260129        0.71661863217812        9.95106219183607
O           15.44514889942179       -1.53446723610765        9.79846974796087
C           15.52272958934987        0.86589843453621        7.07679853621860
C           15.48403614817980        0.93050887825589        5.68708584188144
H           10.80329082849450       -0.12106914798555        0.12713095942568
H           10.84016168610583       -0.41548319323259        2.73958591909424
H           12.67155354729539       -0.45525643969751        4.54605166845267
H           18.08298984019769        0.30129516042650        4.47320173570461
H           19.90316574589172        0.41093496334045        2.64661662772069
H           19.58405290588188       -0.90061642945773       -2.56119479894343
H           17.62971227003107       -0.88018924231840       -4.44359821773899
H           13.95755662644023       -1.60902335983944       -5.35891773460924
H           14.01195725215254       -1.39432797569591       -7.79993962675568
H           15.95203181786519        1.69239318589584      -10.84333561691342
H           16.39283819449243        2.18573640001659       -7.42009387166108
H           16.32539904067972        1.96417618761864       -4.98045308367170
H           12.38665589837424        0.56256425362152       -4.46880279237567
H           10.68905949392650        0.46296679973432       -2.51394657869703
H           15.23314898102457       -2.38996412713881        4.99534462503712
H           15.30138248686197       -2.51592230458258        7.44487015630236
H           15.63170516559522        0.67478457889797       10.94705161752198
H           15.60452559826344        1.78640769186342        7.64278895843494
H           15.53411690410218        1.89575115029016        5.19313834221955
Zn          33.59989754129696        0.00251749193038       -0.01624444512782
C           37.01396841803603       -0.09071752237643       -0.10052405398092
C           36.34412372102700       -0.05788780434041       -1.27693352049754
C           36.99790636498727       -0.05055997378078       -2.57561143657771
C           36.04594645172567        0.03603077613908       -3.50491717707940
C           34.75421961626612        0.08713954538617       -2.82083620327893
N           34.95171507573152        0.02202303191949       -1.43208344287453
C           33.54807443225572        0.23224394859151       -3.44256643095489
C           32.28000397182462        0.30927103726310       -2.73715598285436
C           30.99807649660441        0.59984162203781       -3.37075017655228
C           30.05518673227985        0.54811822349782       -2.42361178202604
N           32.12506025479462        0.08757835804570       -1.44989431218599
C           30.75506766565997        0.22112765118551       -1.19676324730514
C           30.19380151104145       -0.00453793885542        0.01181941114005
C           30.91700001040594       -0.34711144914827        1.22045844953739
C           30.34988019373551       -0.90076261816685        2.32768060607488
C           31.37250573056874       -1.00257860256046        3.30935220857144
C           32.51605911374100       -0.50122364748360        2.76173977187457
C           33.78121500406936       -0.37070915752475        3.48811748426614
C           33.76869160927363       -0.40982968536293        4.97644984078043
C           34.41717912060411       -1.43589598006915        5.67935923161943
C           34.38042073160231       -1.47389877142270        7.07223444984191
C           33.69373756165818       -0.48265064025875        7.80023622249118
C           33.66106465760809       -0.53316633732031        9.29028404406576
O           32.97811070658179        0.45286263076016        9.96826666479259
O           34.22909134433361       -1.43019401042638        9.90082908553442
C           33.04750047983305        0.54000707238737        7.09013536496233
C           33.08322826107857        0.57518207235768        5.69875485561744
C           34.96261452893209       -0.21115326608465        2.84066961288041
C           36.27002354863639       -0.03002447636331        3.45189419370813
C           37.14789972609727        0.03765891522672        2.44540591028998
C           36.40000932767305       -0.08996461337508        1.20386055423516
N           35.11406976874664       -0.23028367525198        1.43581685617471
N           32.27928286980655       -0.08975830260650        1.43377497531392
C           33.51888996131563        0.33109052749993       -4.92252900918799
C           33.58724483547694       -0.82268972731499       -5.71118937141322
C           33.54779043080607       -0.72834391155910       -7.10057026177489
C           33.44198756350627        0.52644165382685       -7.73225734362331
C           33.40014739121574        0.61523514531965       -9.22003043358348
O           33.29791524814713        1.85937224587860       -9.80328750845493
O           33.45550638718881       -0.39427952228766       -9.91127774968129
C           33.37791911403674        1.67624078797077       -6.93102112112215
C           33.41659651479385        1.58014369275466       -5.54312685535782
H           38.09732545354808       -0.10552691022802       -0.14153432142387
H           38.06049394404311       -0.09673749239740       -2.77052966752311
H           36.22916080036337        0.07206353045896       -4.56945362037556
H           30.81707545199298        0.81506641195967       -4.40921870923672
H           28.99698374024907        0.71366762885891       -2.58370098495834
H           29.31667394369958       -1.18996579945879        2.43934773277160
H           31.27066948676016       -1.38668786310251        4.31095662099160
H           34.94310427663805       -2.21616148954142        5.13638442322787
H           34.88870676031221       -2.28437701539072        7.58588571846535
H           32.94862722066077        0.43081664832782       10.96491119888257
H           32.50782408992014        1.31560182281357        7.62139455460472
H           32.57527178752027        1.37683956468633        5.17247760258605
H           36.51398355151635        0.04357122516209        4.50259401572123
H           38.21160827346074        0.17006571326029        2.54932116175834
H           33.66752141218696       -1.79791944996215       -5.23886720219172
H           33.59928243145713       -1.64059463631757       -7.68659575829966
H           33.26896157321867        1.93268225705936      -10.79746644580455
H           33.29614520618345        2.65587412823609       -7.38707822642151
H           33.36656223337157        2.48199943985591       -4.94114553396515
C           20.03162360470688        0.01579070904782       -0.00665971545947
C           21.33538874801046       -0.00526272894435       -0.01122644151949
C           22.58803852474160       -0.02827533809811       -0.00714579244102
C           23.86700365189614       -0.04063239300597       -0.01085119724039
C           25.14055936295568       -0.03015224271610       -0.01653739730701
C           26.36007239149060       -0.00960997488622       -0.02199773799477
C           27.65481899468601        0.01349597509911       -0.00301479329226
C           28.86496425399771        0.01236963401019        0.02425587646545
132
 energy: -245.662959809125 gnorm: 0.172869742064 xtb: 6.5.1 (b24c23e)
Zn          15.29734316567223       -0.00487799513748        0.01481591989659
C           11.88879530882087       -0.09934065449949        0.06963177970958
C           12.56004608868988       -0.20497068305227        1.26359151520015
C           11.90367243010123       -0.34631116562279        2.54494742760776
C           12.86554191693502       -0.36792423409133        3.48627812000534
C           14.14278815788249       -0.24011317069693        2.80802105487260
N           13.92342576501753       -0.14735605883664        1.44955888523123
C           15.36953589963468       -0.16490479398250        3.44284779363193
C           16.61374584048753       -0.00772781906043        2.78278991484233
C           17.88480017703650        0.20298348350567        3.43301020887415
C           18.83298295984352        0.26334736718728        2.46557863009897
N           16.79242927883626       -0.06687639657352        1.45264912636426
C           18.13611198736757        0.08496204652985        1.22619284319036
C           18.72510140844997       -0.01175992332351       -0.03252523720480
C           17.97447372551495       -0.19516024667675       -1.25603056693683
C           18.55204025317450       -0.62520165411962       -2.44669543092482
C           17.55425801467799       -0.60990485379974       -3.41017060574561
C           16.38133794621928       -0.16764612851760       -2.79719693636570
C           15.13921895056823        0.03389663714246       -3.49690528707811
C           15.14695576296383        0.15997309608490       -4.98689351965656
C           14.48884217971100       -0.76395895117399       -5.81190563012250
C           14.52541785445356       -0.63824254710901       -7.19629692201023
C           15.21187547308179        0.42783698789263       -7.80707165074789
C           15.23409222457418        0.53387233319150       -9.30427884938605
O           15.91726272104365        1.59003247428701       -9.82195433775019
O           14.67889740496385       -0.26765150794965      -10.00295414176868
C           15.85299502768179        1.35436893695215       -6.97936587818654
C           15.82129753574030        1.22338565925294       -5.59760458312160
C           13.93515941275118        0.12051256796297       -2.84253340716669
C           12.63616055901989        0.36526603236064       -3.42829093219588
C           11.74169124113112        0.31617408894177       -2.41656893813182
C           12.47806459064154        0.04907649533085       -1.20126354773042
N           13.78275018372937       -0.05164498007865       -1.46746444971240
N           16.63377166950179        0.06210374235534       -1.44738254936022
C           15.38697784225054       -0.23692666002554        4.93070235798861
C           15.31404143915971       -1.46887393356112        5.58658380200320
C           15.35299544543067       -1.53197254707817        6.97343110179967
C           15.45936120221243       -0.35991703594244        7.74510049291196
C           15.50023967814786       -0.46336516026158        9.24111380158123
O           15.60133660783835        0.71005295893341        9.92163140560334
O           15.44605799283699       -1.52157209479977        9.80314113514506
C           15.52279467704543        0.86688787722291        7.07782253077776
C           15.48656417750021        0.92840787157946        5.69256690156879
H           10.80512122079102       -0.11761318171356        0.11834215184073
H           10.84104294733164       -0.41473064269861        2.72566194316367
H           12.68997249470149       -0.45495589938847        4.54772858314271
H           18.07022561974063        0.29937496059006        4.48634691851543
H           19.89286613847459        0.40949831650965        2.63109439161570
H           19.58471877367801       -0.90431648456113       -2.57167876570025
H           17.63970385030130       -0.88347507988914       -4.44731331669973
H           13.96182089609778       -1.60271947530317       -5.36266338533788
H           14.01769554778631       -1.38442311598479       -7.80337367421237
H           15.93365117620637        1.66237643960725      -10.79940786794307
H           16.39139743394657        2.18557486024565       -7.42144122193387
H           16.32521516480436        1.96102511767053       -4.98088519019514
H           12.40282917262564        0.55998784366570       -4.46536249321866
H           10.67990279640400        0.46131213603731       -2.50434166879563
H           15.23411861192279       -2.38301809135146        5.00205890832818
H           15.30204971037633       -2.50616542745833        7.45269012436260
H           15.62827066076827        0.64608864073435       10.89928996093529
H           15.60409550443684        1.78599453350419        7.64650819539713
H           15.53458080522781        1.89226521328702        5.19465609251821
Zn          33.60608014235921       -0.00310259423465       -0.01623234634839
C           37.01193422181572       -0.09058969473429       -0.08199936099889
C           36.34098417158815       -0.05786116863329       -1.27993418411973
C           36.99738250163917       -0.05048059884453       -2.56934323525496
C           36.03600438936365        0.03656512617790       -3.50689673970075
C           34.75849211387708        0.08546170289763       -2.81858568663804
N           34.97744564254629        0.02082778281971       -1.45868158584095
C           33.53347577321728        0.23342579709957       -3.44240953950093
C           32.29092449109427        0.31357307253365       -2.76905950491404
C           31.01515722022806        0.59774393473171       -3.38862671827015
C           30.07030471209560        0.54560592822105       -2.42077855337826
N           32.12034735375466        0.10256556039561       -1.45870789145904
C           30.77789376454771        0.22750417342015       -1.20961290709504
C           30.22805565938164       -0.01088246328166        0.03262632657828
C           30.93950147648071       -0.33978064276199        1.22644826861997
C           30.35267320629870       -0.90253070872462        2.35828009406353
C           31.34697380155813       -0.99910657189344        3.31716103833415
C           32.52255935628472       -0.48999491910320        2.76102917416761
C           33.76293276082253       -0.36984254104183        3.47783169971626
C           33.75434683907575       -0.41600209519062        4.97170844819082
C           34.41203012161102       -1.42911721021165        5.68420062432827
C           34.37529058909874       -1.46382631664595        7.07371862553856
C           33.68879106595104       -0.47520006176161        7.80318350865753
C           33.66656577628856       -0.54251419599023        9.30261368775221
O           32.98339784362671        0.44690172342940        9.93856398254273
O           34.22176483066660       -1.41927042017041        9.90415694446484
C           33.04763347860192        0.54061538970025        7.08791241197941
C           33.07946099325265        0.56984598344502        5.70033469579269
C           34.96616991884103       -0.20803186028361        2.83661012437051
C           36.26496447049681       -0.03236470473887        3.44641261703176
C           37.15923605812541        0.03549111589351        2.43566081387310
C           36.42283823523105       -0.08970509936073        1.19771288717699
N           35.11821448671188       -0.22039259810337        1.45094276117363
N           32.27714702535821       -0.10664910874966        1.44924704063511
C           33.51451906682029        0.33333755565596       -4.92759809214639
C           33.58674987782439       -0.81495470176609       -5.72045670834122
C           33.54764340779934       -0.71766854534107       -7.10516118016985
C           33.44129961963324        0.53565528608331       -7.73633976373772
C           33.40041656204406        0.60540656072105       -9.23425720653590
O           33.29931747081075        1.84946915479017       -9.77485621104462
O           33.45459962768533       -0.38095151144670       -9.91451701805767
C           33.37781110390799        1.67743382854153       -6.93219077895642
C           33.41420682102464        1.57883949216761       -5.54922969942479
H           38.09560821858224       -0.10313090561573       -0.13234133230592
H           38.05995645932542       -0.09762229873302       -2.75653039083764
H           36.21108338093272        0.07254421099831       -4.57129157064207
H           30.82996289260407        0.81477702559545       -4.42368228384138
H           29.00941743297816        0.70963520855561       -2.56586783205077
H           29.31848253772778       -1.19360048326070        2.44732153744405
H           31.26064725633670       -1.39049176113913        4.31533543142699
H           34.93890787744687       -2.21039864750748        5.14097513236216
H           34.88299667629924       -2.27502427050424        7.59061871356159
H           32.96700363680971        0.40606779308668       10.91783898637917
H           32.50922469136244        1.31531442986068        7.62280143832242
H           32.57553407646563        1.37359028746665        5.17258166475324