      -----------------------------------------------------------      
     |                   =====================                   |     
     |                           x T B                           |     
     |                   =====================                   |     
     |                         S. Grimme                         |     
     |          Mulliken Center for Theoretical Chemistry        |     
     |                    University of Bonn                     |     
      -----------------------------------------------------------      

   * xtb version 6.5.1 (b24c23e) compiled by 'conda@728c89f4b128' on 2022-07-12

   xtb is free software: you can redistribute it and/or modify it under
   the terms of the GNU Lesser General Public License as published by
   the Free Software Foundation, either version 3 of the License, or
   (at your option) any later version.
   
   xtb is distributed in the hope that it will be useful,
   but WITHOUT ANY WARRANTY; without even the implied warranty of
   MERCHANTABILITY or FITNESS FOR A PARTICULAR PURPOSE.  See the
   GNU Lesser General Public License for more details.
   
   Cite this work as:
   * C. Bannwarth, E. Caldeweyher, S. Ehlert, A. Hansen, P. Pracht,
     J. Seibert, S. Spicher, S. Grimme, WIREs Comput. Mol. Sci., 2020, 11,
     e01493. DOI: 10.1002/wcms.1493
   
   for GFN2-xTB:
   * C. Bannwarth, S. Ehlert and S. Grimme., J. Chem. Theory Comput., 2019,
     15, 1652-1671. DOI: 10.1021/acs.jctc.8b01176
   for GFN1-xTB:
   * S. Grimme, C. Bannwarth, P. Shushkov, J. Chem. Theory Comput., 2017,
     13, 1989-2009. DOI: 10.1021/acs.jctc.7b00118
   for GFN0-xTB:
   * P. Pracht, E. Caldeweyher, S. Ehlert, S. Grimme, ChemRxiv, 2019, preprint.
     DOI: 10.26434/chemrxiv.8326202.v1
   for GFN-FF:
   * S. Spicher and S. Grimme, Angew. Chem. Int. Ed., 2020, 59, 15665-15673.
     DOI: 10.1002/anie.202004239
   
   for ALPB and GBSA implicit solvation:
   * S. Ehlert, M. Stahn, S. Spicher, S. Grimme, J. Chem. Theory Comput.,
     2021, 17, 4250-4261. DOI: 10.1021/acs.jctc.1c00471
   
   for DFT-D4:
   * E. Caldeweyher, C. Bannwarth and S. Grimme, J. Chem. Phys., 2017,
     147, 034112. DOI: 10.1063/1.4993215
   * E. Caldeweyher, S. Ehlert, A. Hansen, H. Neugebauer, S. Spicher,
     C. Bannwarth and S. Grimme, J. Chem. Phys., 2019, 150, 154122.
     DOI: 10.1063/1.5090222
   * E. Caldeweyher, J.-M. Mewes, S. Ehlert and S. Grimme, Phys. Chem. Chem. Phys.
     2020, 22, 8499-8512. DOI: 10.1039/D0CP00502A
   
   for sTDA-xTB:
   * S. Grimme and C. Bannwarth, J. Chem. Phys., 2016, 145, 054103.
     DOI: 10.1063/1.4959605
   
   in the mass-spec context:
   * V. Asgeirsson, C. Bauer and S. Grimme, Chem. Sci., 2017, 8, 4879.
     DOI: 10.1039/c7sc00601b
   * J. Koopman and S. Grimme, ACS Omega 2019, 4, 12, 15120-15133.
     DOI: 10.1021/acsomega.9b02011
   
   for metadynamics refer to:
   * S. Grimme, J. Chem. Theory Comput., 2019, 155, 2847-2862
     DOI: 10.1021/acs.jctc.9b00143
   
   for SPH calculations refer to:
   * S. Spicher and S. Grimme, J. Chem. Theory Comput., 2021, 17, 1701-1714
     DOI: 10.1021/acs.jctc.0c01306
   
   with help from (in alphabetical order)
   P. Atkinson, C. Bannwarth, F. Bohle, G. Brandenburg, E. Caldeweyher
   M. Checinski, S. Dohm, S. Ehlert, S. Ehrlich, I. Gerasimov, C. Hölzer
   A. Katbashev, J. Koopman, C. Lavigne, S. Lehtola, F. März, M. Müller,
   F. Musil, H. Neugebauer, J. Pisarek, C. Plett, P. Pracht, F. Pultar,
   J. Seibert, P. Shushkov, S. Spicher, M. Stahn, M. Steiner, T. Strunk,
   J. Stückrath, T. Rose, and J. Unsleber
   
 * started run on 2022/07/27 at 20:14:09.041     

           -------------------------------------------------
          |                Calculation Setup                |
           -------------------------------------------------

          program call               : xtb xtbopt.xyz --gfn 1 --vipea
          hostname                   : cx3-6-25.cx3.hpc.ic.ac.uk
          coordinate file            : xtbopt.xyz
          omp threads                :                     1

   ID    Z sym.   atoms
    1    6 C      1-5, 7-12, 14-18, 20-25, 27-32, 34-39, 60-64, 66-71, 73-77,
                  79-84, 86-91, 93-98, 119-159, 161-166, 168-172, 174-179,
                  181-186, 188-193, 213-217, 219-224, 226-230, 232-237,
                  239-244, 246-251, 271-275, 277-282, 284-288, 290-295,
                  297-302, 304-309, 329-333, 335-340, 342-346, 348-353,
                  355-360, 362-367, 387-391, 393-398, 400-404, 406-411,
                  413-418, 420-425
    2    7 N      6, 13, 19, 26, 33, 40, 65, 72, 78, 85, 92, 99, 160, 167,
                  173, 180, 187, 194, 218, 225, 231, 238, 245, 252, 276, 283,
                  289, 296, 303, 310, 334, 341, 347, 354, 361, 368, 392, 399,
                  405, 412, 419, 426
    3    1 H      41-59, 100-118, 195-212, 253-270, 311-328, 369-386, 427-444

           -------------------------------------------------
          |                 I P E A - x T B                 |
           -------------------------------------------------

        Reference                      10.1039/c7sc00601b
      * Hamiltonian:
        H0-scaling (s, p, d)           2.150000    2.300000    2.000000
        zeta-weighting                 0.000000
      * Dispersion:
        s8                             2.400000
        a1                             0.630000
        a2                             5.000000
        s9                             0.000000
      * Repulsion:
        kExp                           1.500000
        rExp                           1.000000
      * Coulomb:
        alpha                          1.000000
        third order                    atomic
        anisotropic                    false
      * Halogen bond correction:
        rad-scale                      1.300000
        damping                        0.440000


          ...................................................
          :                      SETUP                      :
          :.................................................:
          :  # basis functions                1836          :
          :  # atomic orbitals                1836          :
          :  # shells                         1204          :
          :  # electrons                      1434          :
          :  # halogen bonds                     0          :
          :  max. iterations                   250          :
          :  Hamiltonian                  GFN1-xTB          :
          :  restarted?                      false          :
          :  GBSA solvation                  false          :
          :  PC potential                    false          :
          :  electronic temp.          300.0000000     K    :
          :  accuracy                    1.0000000          :
          :  -> integral cutoff          0.2500000E+02      :
          :  -> integral neglect         0.1000000E-07      :
          :  -> SCF convergence          0.1000000E-05 Eh   :
          :  -> wf. convergence          0.2000000E-04 e    :
          :  Broyden damping             0.4000000          :
          ...................................................

 iter      E             dE          RMSdq      gap      omega  full diag
   1   -906.2273868 -0.906227E+03  0.104E+01    0.59       0.0  T
   2   -905.9953972  0.231990E+00  0.652E+00    1.12       1.0  T
   3   -886.8493122  0.191461E+02  0.575E+00    0.20       1.0  T
   4   -908.4067577 -0.215574E+02  0.148E+00    1.00       1.0  T
   5   -910.4502856 -0.204353E+01  0.371E-01    1.00       1.0  T
   6   -910.5821179 -0.131832E+00  0.129E-01    0.94       1.0  T
   7   -910.5953369 -0.132190E-01  0.532E-02    0.94       1.0  T
   8   -910.5953907 -0.537760E-04  0.490E-02    0.94       1.0  T
   9   -910.5963719 -0.981159E-03  0.286E-02    0.94       1.0  T
  10   -910.5968848 -0.512935E-03  0.844E-03    0.94       1.0  T
  11   -910.5969256 -0.408444E-04  0.295E-03    0.94       1.6  T
  12   -910.5969307 -0.504893E-05  0.113E-03    0.94       4.2  T
  13   -910.5969317 -0.103253E-05  0.524E-04    0.94       9.1  T
  14   -910.5969319 -0.205695E-06  0.244E-04    0.94      19.5  T
  15   -910.5969320 -0.363655E-07  0.106E-04    0.94      44.7  T
  16   -910.5969320 -0.613159E-08  0.605E-05    0.94      78.4  T

   *** convergence criteria satisfied after 16 iterations ***

         #    Occupation            Energy/Eh            Energy/eV
      -------------------------------------------------------------
         1        2.0000           -1.0568028             -28.7571
       ...           ...                  ...                  ...
       711        2.0000           -0.3950174             -10.7490
       712        2.0000           -0.3913230             -10.6484
       713        2.0000           -0.3875949             -10.5470
       714        2.0000           -0.3840136             -10.4495
       715        2.0000           -0.3801685             -10.3449
       716        2.0000           -0.3762853             -10.2392
       717        2.0000           -0.3736276             -10.1669 (HOMO)
       718                         -0.3391697              -9.2293 (LUMO)
       719                         -0.3352572              -9.1228
       720                         -0.3304684              -8.9925
       721                         -0.3256888              -8.8624
       722                         -0.3219128              -8.7597
       ...                                ...                  ...
      1836                        559.4826242           15224.2971
      -------------------------------------------------------------
                  HL-Gap            0.0344579 Eh            0.9376 eV
             Fermi-level           -0.3563778 Eh           -9.6975 eV

 SCC (total)                   0 d,  0 h,  0 min, 30.625 sec
 SCC setup                      ...        0 min,  0.021 sec (  0.069%)
 Dispersion                     ...        0 min,  0.024 sec (  0.078%)
 classical contributions        ...        0 min,  0.006 sec (  0.020%)
 integral evaluation            ...        0 min,  1.441 sec (  4.706%)
 iterations                     ...        0 min, 26.205 sec ( 85.566%)
 molecular gradient             ...        0 min,  2.608 sec (  8.517%)
 printout                       ...        0 min,  0.320 sec (  1.044%)

         :::::::::::::::::::::::::::::::::::::::::::::::::::::
         ::                     SUMMARY                     ::
         :::::::::::::::::::::::::::::::::::::::::::::::::::::
         :: total energy            -890.804538405134 Eh    ::
         :: gradient norm              0.131580931987 Eh/a0 ::
         :: HOMO-LUMO gap              0.937648172980 eV    ::
         ::.................................................::
         :: SCC energy              -910.596931964372 Eh    ::
         :: -> electrostatic           0.679042407537 Eh    ::
         :: repulsion energy          20.181204854218 Eh    ::
         :: dispersion energy         -0.388811294980 Eh    ::
         :: halogen bond corr.         0.000000000000 Eh    ::
         :: add. restraining           0.000000000000 Eh    ::
         :: total charge               0.000000001210 e     ::
         :::::::::::::::::::::::::::::::::::::::::::::::::::::

           ------------------------------------------------- 
          |        vertical delta SCC IP calculation        |
           ------------------------------------------------- 
   1   -910.2042018 -0.910204E+03  0.472E-02    0.94       0.0  T
   2   -910.2015153  0.268649E-02  0.557E-02    0.89       1.0  T
   3   -910.2073648 -0.584949E-02  0.266E-02    0.94       1.0  T
   4   -910.2082417 -0.876919E-03  0.178E-02    0.93       1.0  T
   5   -910.2081765  0.652342E-04  0.114E-02    0.93       1.0  T
   6   -910.2065993  0.157716E-02  0.213E-02    0.92       1.0  T
   7   -910.2083493 -0.175001E-02  0.661E-03    0.93       1.0  T
   8   -910.2084549 -0.105593E-03  0.201E-03    0.93       2.4  T
   9   -910.2084609 -0.604257E-05  0.736E-04    0.93       6.5  T
  10   -910.2084611 -0.187103E-06  0.462E-04    0.93      10.3  T
  11   -910.2084614 -0.255192E-06  0.139E-04    0.93      34.2  T
  12   -910.2084614 -0.142524E-07  0.651E-05    0.93      72.9  T
     SCC iter.                  ...        0 min, 19.737 sec
     gradient                   ...        0 min,  2.660 sec
------------------------------------------------------------------------
empirical IP shift (eV):    4.8455
delta SCC IP (eV):    5.7253
------------------------------------------------------------------------
           ------------------------------------------------- 
          |        vertical delta SCC EA calculation        |
           ------------------------------------------------- 
   1   -910.9060032 -0.910906E+03  0.839E-02    0.11       0.0  T
   2   -910.9106727 -0.466948E-02  0.776E-02    0.03       1.0  T
   3   -910.9177704 -0.709773E-02  0.430E-02    0.08       1.0  T
   4   -910.9188668 -0.109638E-02  0.332E-02    0.05       1.0  T
   5   -910.9194689 -0.602084E-03  0.189E-02    0.06       1.0  T
   6   -910.9173556  0.211326E-02  0.249E-02    0.07       1.0  T
   7   -910.9191127 -0.175702E-02  0.135E-02    0.06       1.0  T
   8   -910.9198149 -0.702204E-03  0.376E-03    0.06       1.3  T
   9   -910.9198413 -0.264615E-04  0.180E-03    0.06       2.6  T
  10   -910.9198444 -0.308339E-05  0.552E-04    0.06       8.6  T
  11   -910.9198448 -0.365743E-06  0.294E-04    0.06      16.1  T
  12   -910.9198448 -0.712258E-07  0.148E-04    0.06      32.1  T
  13   -910.9198449 -0.176176E-07  0.535E-05    0.06      88.6  T
     SCC iter.                  ...        0 min, 23.818 sec
     gradient                   ...        0 min,  2.697 sec
------------------------------------------------------------------------
empirical EA shift (eV):    4.8455
delta SCC EA (eV):    3.9414
------------------------------------------------------------------------
           -------------------------------------------------
          |                Property Printout                |
           -------------------------------------------------

    * Orbital Energies and Occupations

         #    Occupation            Energy/Eh            Energy/eV
      -------------------------------------------------------------
         1        2.0000           -1.0306283             -28.0448
       ...           ...                  ...                  ...
       706        2.0000           -0.3734055             -10.1609
       707        2.0000           -0.3732664             -10.1571
       708        2.0000           -0.3717029             -10.1146
       709        2.0000           -0.3716671             -10.1136
       710        2.0000           -0.3716046             -10.1119
       711        2.0000           -0.3643879              -9.9155
       712        2.0000           -0.3632504              -9.8845
       713        2.0000           -0.3595965              -9.7851
       714        2.0000           -0.3553157              -9.6686
       715        2.0000           -0.3504882              -9.5373
       716        2.0000           -0.3455207              -9.4021
       717        2.0000           -0.3413177              -9.2877
       718        0.7520           -0.3068479              -8.3498 (HOMO)
       719        0.2415           -0.3047070              -8.2915 (LUMO)
       720        0.0064           -0.3009949              -8.1905
       721        0.0002           -0.2974534              -8.0941
       722        0.0000           -0.2953774              -8.0376
       723        0.0000           -0.2944905              -8.0135
       724        0.0000           -0.2927348              -7.9657
       725                         -0.2903299              -7.9003
       726                         -0.2894396              -7.8761
       727                         -0.2884104              -7.8480
       728                         -0.2881501              -7.8410
       729                         -0.2875897              -7.8257
       ...                                ...                  ...
      1836                        559.5143128           15225.1594
      -------------------------------------------------------------
                  HL-Gap            0.0021409 Eh            0.0583 eV
             Fermi-level           -0.3149599 Eh           -8.5705 eV

  Mulliken/CM5 charges         n(s)   n(p)   n(d)
     1C    -0.01962 -0.06046   1.090  2.930  0.000
     2C     0.06354  0.12393   1.106  2.831  0.000
     3C    -0.03251 -0.07784   1.082  2.951  0.000
     4C    -0.03143 -0.07641   1.075  2.956  0.000
     5C     0.06405  0.12803   1.101  2.835  0.000
     6N    -0.15760 -0.51059   1.312  3.846  0.000
     7C     0.00964  0.01539   1.090  2.901  0.000
     8C     0.01486  0.00623   1.089  2.897  0.000
     9C    -0.01589 -0.06920   1.076  2.940  0.000
    10C    -0.01074 -0.06282   1.092  2.919  0.000
    11C     0.01687  0.01313   1.077  2.906  0.000
    12C     0.11288  0.23043   1.209  2.678  0.000
    13N    -0.26408 -0.38868   1.544  3.720  0.000
    14C    -0.01146 -0.06353   1.092  2.920  0.000
    15C    -0.01747 -0.07069   1.074  2.944  0.000
    16C     0.06044  0.12855   1.118  2.822  0.000
    17C    -0.03675 -0.08278   1.084  2.953  0.000
    18C    -0.03651 -0.08197   1.091  2.945  0.000
    19N    -0.28341 -0.47009   1.293  3.991  0.000
    20C     0.06561  0.13641   1.130  2.804  0.000
    21C     0.01937  0.02656   1.085  2.895  0.000
    22C     0.06769  0.13259   1.110  2.823  0.000
    23C    -0.03137 -0.07582   1.080  2.951  0.000
    24C    -0.03146 -0.07644   1.074  2.957  0.000
    25C     0.06323  0.12661   1.099  2.838  0.000
    26N    -0.15549 -0.50773   1.314  3.842  0.000
    27C     0.00910  0.01490   1.090  2.901  0.000
    28C     0.01478  0.00617   1.088  2.897  0.000
    29C    -0.01637 -0.06968   1.076  2.941  0.000
    30C    -0.01108 -0.06316   1.092  2.919  0.000
    31C     0.01677  0.01303   1.077  2.906  0.000
    32C     0.11282  0.23036   1.209  2.678  0.000
    33N    -0.26428 -0.38888   1.544  3.721  0.000
    34C    -0.01123 -0.06330   1.092  2.919  0.000
    35C    -0.01714 -0.07036   1.074  2.943  0.000
    36C     0.06191  0.13133   1.121  2.817  0.000
    37C    -0.03673 -0.08275   1.086  2.951  0.000
    38C    -0.03754 -0.08395   1.092  2.945  0.000
    39C     0.06056  0.12624   1.126  2.814  0.000
    40N    -0.28576 -0.47279   1.293  3.993  0.000
    41H     0.03269  0.09173   0.967  0.000  0.000
    42H     0.04353  0.10022   0.956  0.000  0.000
    43H     0.03418  0.09289   0.966  0.000  0.000
    44H     0.16549  0.37380   0.835  0.000  0.000
    45H     0.03370  0.09166   0.966  0.000  0.000
    46H     0.04445  0.10171   0.956  0.000  0.000
    47H     0.04365  0.10091   0.956  0.000  0.000
    48H     0.03339  0.09132   0.967  0.000  0.000
    49H     0.02482  0.08360   0.975  0.000  0.000
    50H     0.02829  0.08636   0.972  0.000  0.000
    51H     0.03859  0.09671   0.961  0.000  0.000
    52H     0.03455  0.09333   0.965  0.000  0.000
    53H     0.16427  0.37254   0.836  0.000  0.000
    54H     0.03306  0.09101   0.967  0.000  0.000
    55H     0.04384  0.10110   0.956  0.000  0.000
    56H     0.04406  0.10132   0.956  0.000  0.000
    57H     0.03385  0.09180   0.966  0.000  0.000
    58H     0.02460  0.08327   0.975  0.000  0.000
    59H     0.03355  0.08999   0.966  0.000  0.000
    60C    -0.01970 -0.06053   1.090  2.930  0.000
    61C     0.06350  0.12389   1.106  2.831  0.000
    62C    -0.03257 -0.07790   1.082  2.951  0.000
    63C    -0.03149 -0.07646   1.075  2.956  0.000
    64C     0.06398  0.12797   1.101  2.835  0.000
    65N    -0.15762 -0.51061   1.312  3.846  0.000
    66C     0.00966  0.01541   1.090  2.901  0.000
    67C     0.01489  0.00626   1.089  2.897  0.000
    68C    -0.01591 -0.06923   1.076  2.940  0.000
    69C    -0.01074 -0.06283   1.092  2.919  0.000
    70C     0.01684  0.01310   1.077  2.906  0.000
    71C     0.11288  0.23042   1.209  2.678  0.000
    72N    -0.26410 -0.38871   1.544  3.720  0.000
    73C    -0.01147 -0.06353   1.092  2.920  0.000
    74C    -0.01747 -0.07068   1.074  2.944  0.000
    75C     0.06038  0.12847   1.118  2.822  0.000
    76C    -0.03683 -0.08285   1.084  2.953  0.000
    77C    -0.03655 -0.08201   1.091  2.945  0.000
    78N    -0.28346 -0.47010   1.293  3.991  0.000
    79C     0.06564  0.13646   1.130  2.804  0.000
    80C     0.01925  0.02644   1.085  2.896  0.000
    81C     0.06767  0.13258   1.110  2.823  0.000
    82C    -0.03141 -0.07586   1.080  2.951  0.000
    83C    -0.03151 -0.07649   1.074  2.957  0.000
    84C     0.06319  0.12656   1.099  2.838  0.000
    85N    -0.15554 -0.50776   1.314  3.842  0.000
    86C     0.00908  0.01488   1.090  2.901  0.000
    87C     0.01479  0.00618   1.088  2.897  0.000
    88C    -0.01643 -0.06974   1.076  2.941  0.000
    89C    -0.01115 -0.06323   1.092  2.919  0.000
    90C     0.01673  0.01299   1.077  2.906  0.000
    91C     0.11281  0.23037   1.209  2.678  0.000
    92N    -0.26431 -0.38894   1.544  3.721  0.000
    93C    -0.01118 -0.06325   1.092  2.919  0.000
    94C    -0.01710 -0.07033   1.074  2.943  0.000
    95C     0.06187  0.13130   1.121  2.817  0.000
    96C    -0.03677 -0.08278   1.086  2.951  0.000
    97C    -0.03759 -0.08400   1.092  2.945  0.000
    98C     0.06052  0.12618   1.126  2.814  0.000
    99N    -0.28581 -0.47285   1.293  3.993  0.000
   100H     0.03260  0.09164   0.967  0.000  0.000
   101H     0.04346  0.10014   0.957  0.000  0.000
   102H     0.03413  0.09283   0.966  0.000  0.000
   103H     0.16548  0.37379   0.835  0.000  0.000
   104H     0.03367  0.09162   0.966  0.000  0.000
   105H     0.04448  0.10173   0.956  0.000  0.000
   106H     0.04358  0.10084   0.956  0.000  0.000
   107H     0.03338  0.09131   0.967  0.000  0.000
   108H     0.02474  0.08353   0.975  0.000  0.000
   109H     0.02818  0.08628   0.972  0.000  0.000
   110H     0.03847  0.09659   0.962  0.000  0.000
   111H     0.03449  0.09328   0.966  0.000  0.000
   112H     0.16426  0.37252   0.836  0.000  0.000
   113H     0.03296  0.09091   0.967  0.000  0.000
   114H     0.04370  0.10095   0.956  0.000  0.000
   115H     0.04418  0.10143   0.956  0.000  0.000
   116H     0.03394  0.09187   0.966  0.000  0.000
   117H     0.02455  0.08322   0.975  0.000  0.000
   118H     0.03347  0.08991   0.967  0.000  0.000
   119C    -0.01241 -0.01251   1.077  2.935  0.000
   120C    -0.01500 -0.01510   1.075  2.940  0.000
   121C    -0.01691 -0.01767   1.062  2.955  0.000
   122C    -0.01652 -0.01815   1.091  2.926  0.000
   123C    -0.01926 -0.01999   1.060  2.959  0.000
   124C    -0.01397 -0.01554   1.094  2.920  0.000
   125C    -0.01400 -0.01410   1.076  2.938  0.000
   126C    -0.01470 -0.01480   1.076  2.939  0.000
   127C    -0.01826 -0.01900   1.061  2.957  0.000
   128C    -0.01624 -0.01782   1.092  2.925  0.000
   129C    -0.01882 -0.01955   1.061  2.958  0.000
   130C    -0.01545 -0.01702   1.092  2.923  0.000
   131C    -0.01417 -0.01427   1.076  2.938  0.000
   132C    -0.01415 -0.01425   1.076  2.938  0.000
   133C    -0.01844 -0.01916   1.061  2.957  0.000
   134C    -0.01568 -0.01724   1.092  2.924  0.000
   135C    -0.01835 -0.01908   1.061  2.957  0.000
   136C    -0.01563 -0.01719   1.092  2.924  0.000
   137C    -0.01415 -0.01425   1.076  2.938  0.000
   138C    -0.01417 -0.01427   1.076  2.938  0.000
   139C    -0.01835 -0.01908   1.061  2.957  0.000
   140C    -0.01563 -0.01719   1.092  2.924  0.000
   141C    -0.01844 -0.01917   1.061  2.957  0.000
   142C    -0.01567 -0.01723   1.092  2.924  0.000
   143C    -0.01468 -0.01478   1.076  2.939  0.000
   144C    -0.01403 -0.01413   1.076  2.938  0.000
   145C    -0.01880 -0.01953   1.061  2.958  0.000
   146C    -0.01547 -0.01704   1.092  2.923  0.000
   147C    -0.01829 -0.01903   1.061  2.957  0.000
   148C    -0.01621 -0.01779   1.092  2.925  0.000
   149C    -0.01513 -0.01523   1.075  2.940  0.000
   150C    -0.01261 -0.01271   1.077  2.936  0.000
   151C    -0.01935 -0.02009   1.060  2.959  0.000
   152C    -0.01416 -0.01575   1.094  2.920  0.000
   153C    -0.01706 -0.01783   1.062  2.955  0.000
   154C    -0.01666 -0.01830   1.091  2.926  0.000
   155C     0.01617  0.02343   1.083  2.901  0.000
   156C     0.06703  0.13191   1.110  2.823  0.000
   157C    -0.03375 -0.07821   1.079  2.955  0.000
   158C    -0.03237 -0.07733   1.074  2.958  0.000
   159C     0.06143  0.12490   1.096  2.842  0.000
   160N    -0.15521 -0.50768   1.313  3.842  0.000
   161C     0.01175  0.01740   1.091  2.897  0.000
   162C     0.01549  0.00678   1.089  2.896  0.000
   163C    -0.01690 -0.07014   1.074  2.943  0.000
   164C    -0.01132 -0.06340   1.092  2.919  0.000
   165C     0.01680  0.01306   1.077  2.906  0.000
   166C     0.11284  0.23038   1.209  2.678  0.000
   167N    -0.26469 -0.38929   1.544  3.721  0.000
   168C    -0.01075 -0.06283   1.092  2.919  0.000
   169C    -0.01566 -0.06897   1.076  2.940  0.000
   170C     0.05911  0.12711   1.116  2.825  0.000
   171C    -0.03721 -0.08323   1.084  2.953  0.000
   172C    -0.03761 -0.08308   1.091  2.947  0.000
   173N    -0.28339 -0.46958   1.293  3.991  0.000
   174C     0.06537  0.13624   1.130  2.804  0.000
   175C     0.01767  0.02491   1.084  2.898  0.000
   176C     0.06719  0.13211   1.110  2.823  0.000
   177C    -0.03307 -0.07752   1.079  2.954  0.000
   178C    -0.03229 -0.07724   1.074  2.958  0.000
   179C     0.06161  0.12500   1.096  2.842  0.000
   180N    -0.15494 -0.50734   1.313  3.842  0.000
   181C     0.01143  0.01709   1.091  2.898  0.000
   182C     0.01542  0.00672   1.089  2.896  0.000
   183C    -0.01680 -0.07004   1.074  2.943  0.000
   184C    -0.01117 -0.06325   1.092  2.919  0.000
   185C     0.01677  0.01302   1.077  2.906  0.000
   186C     0.11284  0.23042   1.209  2.678  0.000
   187N    -0.26472 -0.38936   1.544  3.721  0.000
   188C    -0.01095 -0.06303   1.092  2.919  0.000
   189C    -0.01582 -0.06914   1.076  2.940  0.000
   190C     0.05929  0.12742   1.116  2.825  0.000
   191C    -0.03719 -0.08322   1.085  2.953  0.000
   192C    -0.03805 -0.08352   1.090  2.948  0.000
   193C     0.06506  0.13580   1.130  2.805  0.000
   194N    -0.28394 -0.47019   1.292  3.992  0.000
   195H     0.03628  0.09436   0.964  0.000  0.000
   196H     0.03278  0.09163   0.967  0.000  0.000
   197H     0.16419  0.37215   0.836  0.000  0.000
   198H     0.03353  0.09147   0.966  0.000  0.000
   199H     0.04336  0.10062   0.957  0.000  0.000
   200H     0.04401  0.10127   0.956  0.000  0.000
   201H     0.03354  0.09146   0.966  0.000  0.000
   202H     0.02369  0.08247   0.976  0.000  0.000
   203H     0.02706  0.08509   0.973  0.000  0.000
   204H     0.03725  0.09532   0.963  0.000  0.000
   205H     0.03318  0.09201   0.967  0.000  0.000
   206H     0.16408  0.37203   0.836  0.000  0.000
   207H     0.03383  0.09174   0.966  0.000  0.000
   208H     0.04374  0.10100   0.956  0.000  0.000
   209H     0.04357  0.10084   0.956  0.000  0.000
   210H     0.03312  0.09108   0.967  0.000  0.000
   211H     0.02338  0.08221   0.977  0.000  0.000
   212H     0.02623  0.08425   0.974  0.000  0.000
   213C     0.01706  0.02431   1.083  2.899  0.000
   214C     0.06709  0.13200   1.110  2.823  0.000
   215C    -0.03343 -0.07788   1.079  2.955  0.000
   216C    -0.03233 -0.07728   1.074  2.958  0.000
   217C     0.06148  0.12491   1.096  2.842  0.000
   218N    -0.15497 -0.50741   1.313  3.842  0.000
   219C     0.01178  0.01742   1.091  2.897  0.000
   220C     0.01550  0.00678   1.089  2.895  0.000
   221C    -0.01682 -0.07007   1.074  2.943  0.000
   222C    -0.01121 -0.06329   1.092  2.919  0.000
   223C     0.01680  0.01306   1.077  2.906  0.000
   224C     0.11286  0.23042   1.209  2.678  0.000
   225N    -0.26468 -0.38930   1.544  3.721  0.000
   226C    -0.01081 -0.06289   1.092  2.919  0.000
   227C    -0.01572 -0.06904   1.076  2.940  0.000
   228C     0.05915  0.12715   1.116  2.825  0.000
   229C    -0.03717 -0.08319   1.084  2.953  0.000
   230C    -0.03771 -0.08318   1.090  2.947  0.000
   231N    -0.28354 -0.46967   1.292  3.991  0.000
   232C     0.06529  0.13612   1.130  2.804  0.000
   233C     0.01732  0.02456   1.084  2.899  0.000
   234C     0.06718  0.13209   1.110  2.823  0.000
   235C    -0.03321 -0.07766   1.079  2.954  0.000
   236C    -0.03222 -0.07717   1.074  2.958  0.000
   237C     0.06153  0.12493   1.096  2.842  0.000
   238N    -0.15499 -0.50738   1.313  3.842  0.000
   239C     0.01179  0.01742   1.091  2.897  0.000
   240C     0.01549  0.00678   1.089  2.895  0.000
   241C    -0.01679 -0.07003   1.074  2.943  0.000
   242C    -0.01118 -0.06325   1.092  2.919  0.000
   243C     0.01681  0.01306   1.077  2.906  0.000
   244C     0.11287  0.23043   1.209  2.678  0.000
   245N    -0.26467 -0.38930   1.544  3.721  0.000
   246C    -0.01084 -0.06293   1.092  2.919  0.000
   247C    -0.01574 -0.06907   1.076  2.940  0.000
   248C     0.05913  0.12717   1.116  2.825  0.000
   249C    -0.03724 -0.08326   1.084  2.953  0.000
   250C    -0.03789 -0.08336   1.090  2.948  0.000
   251C     0.06522  0.13604   1.130  2.805  0.000
   252N    -0.28355 -0.46971   1.292  3.991  0.000
   253H     0.03673  0.09479   0.963  0.000  0.000
   254H     0.03291  0.09178   0.967  0.000  0.000
   255H     0.16412  0.37204   0.836  0.000  0.000
   256H     0.03366  0.09158   0.966  0.000  0.000
   257H     0.04351  0.10077   0.956  0.000  0.000
   258H     0.04382  0.10108   0.956  0.000  0.000
   259H     0.03337  0.09129   0.967  0.000  0.000
   260H     0.02358  0.08239   0.976  0.000  0.000
   261H     0.02682  0.08483   0.973  0.000  0.000
   262H     0.03702  0.09509   0.963  0.000  0.000
   263H     0.03308  0.09192   0.967  0.000  0.000
   264H     0.16410  0.37202   0.836  0.000  0.000
   265H     0.03376  0.09167   0.966  0.000  0.000
   266H     0.04362  0.10088   0.956  0.000  0.000
   267H     0.04371  0.10097   0.956  0.000  0.000
   268H     0.03326  0.09119   0.967  0.000  0.000
   269H     0.02344  0.08227   0.977  0.000  0.000
   270H     0.02655  0.08457   0.973  0.000  0.000
   271C     0.01750  0.02475   1.084  2.899  0.000
   272C     0.06720  0.13210   1.110  2.823  0.000
   273C    -0.03312 -0.07757   1.079  2.954  0.000
   274C    -0.03215 -0.07709   1.074  2.958  0.000
   275C     0.06167  0.12508   1.096  2.842  0.000
   276N    -0.15493 -0.50733   1.313  3.842  0.000
   277C     0.01183  0.01746   1.091  2.897  0.000
   278C     0.01547  0.00675   1.089  2.896  0.000
   279C    -0.01680 -0.07005   1.074  2.943  0.000
   280C    -0.01116 -0.06323   1.092  2.919  0.000
   281C     0.01685  0.01310   1.077  2.906  0.000
   282C     0.11289  0.23045   1.209  2.678  0.000
   283N    -0.26457 -0.38919   1.544  3.721  0.000
   284C    -0.01081 -0.06289   1.092  2.919  0.000
   285C    -0.01573 -0.06906   1.076  2.940  0.000
   286C     0.05928  0.12730   1.116  2.825  0.000
   287C    -0.03712 -0.08314   1.084  2.953  0.000
   288C    -0.03767 -0.08314   1.090  2.947  0.000
   289N    -0.28343 -0.46957   1.292  3.991  0.000
   290C     0.06530  0.13612   1.130  2.804  0.000
   291C     0.01750  0.02475   1.084  2.899  0.000
   292C     0.06720  0.13210   1.110  2.823  0.000
   293C    -0.03312 -0.07757   1.079  2.954  0.000
   294C    -0.03215 -0.07709   1.074  2.958  0.000
   295C     0.06167  0.12508   1.096  2.842  0.000
   296N    -0.15492 -0.50733   1.313  3.842  0.000
   297C     0.01183  0.01746   1.091  2.897  0.000
   298C     0.01547  0.00675   1.089  2.896  0.000
   299C    -0.01680 -0.07005   1.074  2.943  0.000
   300C    -0.01116 -0.06324   1.092  2.919  0.000
   301C     0.01685  0.01311   1.077  2.906  0.000
   302C     0.11289  0.23045   1.209  2.678  0.000
   303N    -0.26457 -0.38919   1.544  3.721  0.000
   304C    -0.01080 -0.06288   1.092  2.919  0.000
   305C    -0.01573 -0.06905   1.076  2.940  0.000
   306C     0.05927  0.12729   1.116  2.825  0.000
   307C    -0.03712 -0.08314   1.084  2.953  0.000
   308C    -0.03767 -0.08314   1.090  2.947  0.000
   309C     0.06529  0.13611   1.130  2.804  0.000
   310N    -0.28344 -0.46957   1.292  3.991  0.000
   311H     0.03707  0.09513   0.963  0.000  0.000
   312H     0.03314  0.09200   0.967  0.000  0.000
   313H     0.16417  0.37208   0.836  0.000  0.000
   314H     0.03375  0.09167   0.966  0.000  0.000
   315H     0.04364  0.10090   0.956  0.000  0.000
   316H     0.04383  0.10109   0.956  0.000  0.000
   317H     0.03335  0.09128   0.967  0.000  0.000
   318H     0.02364  0.08246   0.976  0.000  0.000
   319H     0.02685  0.08486   0.973  0.000  0.000
   320H     0.03707  0.09513   0.963  0.000  0.000
   321H     0.03315  0.09201   0.967  0.000  0.000
   322H     0.16417  0.37208   0.836  0.000  0.000
   323H     0.03375  0.09167   0.966  0.000  0.000
   324H     0.04364  0.10090   0.956  0.000  0.000
   325H     0.04382  0.10109   0.956  0.000  0.000
   326H     0.03336  0.09128   0.967  0.000  0.000
   327H     0.02363  0.08245   0.976  0.000  0.000
   328H     0.02684  0.08486   0.973  0.000  0.000
   329C     0.01732  0.02456   1.084  2.899  0.000
   330C     0.06718  0.13209   1.110  2.823  0.000
   331C    -0.03321 -0.07766   1.079  2.954  0.000
   332C    -0.03222 -0.07716   1.074  2.958  0.000
   333C     0.06154  0.12494   1.096  2.842  0.000
   334N    -0.15499 -0.50738   1.313  3.842  0.000
   335C     0.01179  0.01742   1.091  2.897  0.000
   336C     0.01549  0.00678   1.089  2.895  0.000
   337C    -0.01680 -0.07003   1.074  2.943  0.000
   338C    -0.01118 -0.06326   1.092  2.919  0.000
   339C     0.01681  0.01307   1.077  2.906  0.000
   340C     0.11287  0.23043   1.209  2.678  0.000
   341N    -0.26467 -0.38929   1.544  3.721  0.000
   342C    -0.01083 -0.06292   1.092  2.919  0.000
   343C    -0.01574 -0.06907   1.076  2.940  0.000
   344C     0.05913  0.12717   1.116  2.825  0.000
   345C    -0.03724 -0.08326   1.084  2.953  0.000
   346C    -0.03789 -0.08335   1.090  2.948  0.000
   347N    -0.28355 -0.46971   1.292  3.991  0.000
   348C     0.06522  0.13604   1.130  2.805  0.000
   349C     0.01709  0.02434   1.083  2.899  0.000
   350C     0.06709  0.13200   1.110  2.823  0.000
   351C    -0.03341 -0.07786   1.079  2.955  0.000
   352C    -0.03232 -0.07727   1.074  2.958  0.000
   353C     0.06149  0.12492   1.096  2.842  0.000
   354N    -0.15497 -0.50740   1.313  3.842  0.000
   355C     0.01178  0.01742   1.091  2.897  0.000
   356C     0.01550  0.00678   1.089  2.895  0.000
   357C    -0.01682 -0.07006   1.074  2.943  0.000
   358C    -0.01120 -0.06328   1.092  2.919  0.000
   359C     0.01680  0.01306   1.077  2.906  0.000
   360C     0.11286  0.23042   1.209  2.678  0.000
   361N    -0.26468 -0.38930   1.544  3.721  0.000
   362C    -0.01082 -0.06290   1.092  2.919  0.000
   363C    -0.01573 -0.06905   1.076  2.940  0.000
   364C     0.05915  0.12716   1.116  2.825  0.000
   365C    -0.03717 -0.08319   1.084  2.953  0.000
   366C    -0.03772 -0.08318   1.090  2.947  0.000
   367C     0.06530  0.13613   1.130  2.804  0.000
   368N    -0.28354 -0.46967   1.292  3.991  0.000
   369H     0.03702  0.09508   0.963  0.000  0.000
   370H     0.03309  0.09193   0.967  0.000  0.000
   371H     0.16411  0.37202   0.836  0.000  0.000
   372H     0.03376  0.09167   0.966  0.000  0.000
   373H     0.04361  0.10088   0.956  0.000  0.000
   374H     0.04372  0.10098   0.956  0.000  0.000
   375H     0.03327  0.09120   0.967  0.000  0.000
   376H     0.02344  0.08228   0.977  0.000  0.000
   377H     0.02656  0.08458   0.973  0.000  0.000
   378H     0.03674  0.09481   0.963  0.000  0.000
   379H     0.03292  0.09178   0.967  0.000  0.000
   380H     0.16412  0.37205   0.836  0.000  0.000
   381H     0.03368  0.09160   0.966  0.000  0.000
   382H     0.04353  0.10079   0.956  0.000  0.000
   383H     0.04380  0.10106   0.956  0.000  0.000
   384H     0.03336  0.09128   0.967  0.000  0.000
   385H     0.02358  0.08240   0.976  0.000  0.000
   386H     0.02682  0.08483   0.973  0.000  0.000
   387C     0.01764  0.02487   1.084  2.898  0.000
   388C     0.06718  0.13210   1.110  2.823  0.000
   389C    -0.03310 -0.07755   1.079  2.954  0.000
   390C    -0.03231 -0.07726   1.074  2.958  0.000
   391C     0.06157  0.12496   1.096  2.842  0.000
   392N    -0.15493 -0.50732   1.313  3.842  0.000
   393C     0.01150  0.01715   1.091  2.897  0.000
   394C     0.01545  0.00674   1.089  2.896  0.000
   395C    -0.01681 -0.07003   1.074  2.943  0.000
   396C    -0.01118 -0.06325   1.092  2.919  0.000
   397C     0.01675  0.01301   1.077  2.906  0.000
   398C     0.11282  0.23039   1.209  2.678  0.000
   399N    -0.26475 -0.38937   1.544  3.721  0.000
   400C    -0.01094 -0.06302   1.092  2.919  0.000
   401C    -0.01584 -0.06918   1.076  2.940  0.000
   402C     0.05926  0.12737   1.116  2.825  0.000
   403C    -0.03724 -0.08326   1.084  2.953  0.000
   404C    -0.03805 -0.08352   1.090  2.948  0.000
   405N    -0.28397 -0.47016   1.292  3.992  0.000
   406C     0.06512  0.13588   1.130  2.805  0.000
   407C     0.01613  0.02338   1.082  2.901  0.000
   408C     0.06705  0.13194   1.110  2.823  0.000
   409C    -0.03374 -0.07820   1.079  2.955  0.000
   410C    -0.03238 -0.07734   1.074  2.958  0.000
   411C     0.06142  0.12488   1.096  2.842  0.000
   412N    -0.15522 -0.50766   1.313  3.842  0.000
   413C     0.01178  0.01743   1.091  2.897  0.000
   414C     0.01550  0.00679   1.089  2.895  0.000
   415C    -0.01687 -0.07012   1.074  2.943  0.000
   416C    -0.01126 -0.06334   1.092  2.919  0.000
   417C     0.01677  0.01303   1.077  2.906  0.000
   418C     0.11284  0.23040   1.209  2.678  0.000
   419N    -0.26469 -0.38931   1.544  3.721  0.000
   420C    -0.01082 -0.06290   1.092  2.919  0.000
   421C    -0.01572 -0.06903   1.076  2.940  0.000
   422C     0.05909  0.12709   1.116  2.825  0.000
   423C    -0.03722 -0.08324   1.084  2.953  0.000
   424C    -0.03764 -0.08310   1.091  2.947  0.000
   425C     0.06534  0.13620   1.130  2.804  0.000
   426N    -0.28342 -0.46960   1.293  3.991  0.000
   427H     0.03721  0.09529   0.963  0.000  0.000
   428H     0.03317  0.09199   0.967  0.000  0.000
   429H     0.16409  0.37202   0.836  0.000  0.000
   430H     0.03383  0.09174   0.966  0.000  0.000
   431H     0.04368  0.10094   0.956  0.000  0.000
   432H     0.04361  0.10087   0.956  0.000  0.000
   433H     0.03313  0.09106   0.967  0.000  0.000
   434H     0.02335  0.08219   0.977  0.000  0.000
   435H     0.02618  0.08421   0.974  0.000  0.000
   436H     0.03623  0.09431   0.964  0.000  0.000
   437H     0.03276  0.09162   0.967  0.000  0.000
   438H     0.16419  0.37213   0.836  0.000  0.000
   439H     0.03362  0.09154   0.966  0.000  0.000
   440H     0.04349  0.10075   0.957  0.000  0.000
   441H     0.04389  0.10115   0.956  0.000  0.000
   442H     0.03347  0.09139   0.967  0.000  0.000
   443H     0.02368  0.08246   0.976  0.000  0.000
   444H     0.02702  0.08504   0.973  0.000  0.000

Wiberg/Mayer (AO) data.
largest (>0.10) Wiberg bond orders for each atom

 ---------------------------------------------------------------------------
     #   Z sym  total        # sym  WBO       # sym  WBO       # sym  WBO
 ---------------------------------------------------------------------------
     1   6 C    3.817 --    39 C    1.386     2 C    1.374    41 H    0.995
     2   6 C    3.925 --     1 C    1.374     3 C    1.239     6 N    1.229
     3   6 C    3.841 --     4 C    1.601     2 C    1.239    42 H    0.992
     4   6 C    3.824 --     3 C    1.601     5 C    1.249    43 H    0.998
     5   6 C    3.899 --     7 C    1.341     4 C    1.249     6 N    1.231
     6   7 N    3.249 --     5 C    1.231     2 C    1.229    44 H    0.960
     7   6 C    3.842 --    16 C    1.366     5 C    1.341     8 C    1.054
     8   6 C    3.868 --    15 C    1.415     9 C    1.414     7 C    1.054
     9   6 C    3.862 --    10 C    1.464     8 C    1.414    45 H    0.986
    10   6 C    3.905 --     9 C    1.464    11 C    1.383    46 H    0.985
    11   6 C    3.906 --    14 C    1.384    10 C    1.383    12 C    1.124
    12   6 C    4.103 --    13 N    2.963    11 C    1.124
    13   7 N    2.987 --    12 C    2.963
    14   6 C    3.905 --    15 C    1.463    11 C    1.384    47 H    0.985
    15   6 C    3.858 --    14 C    1.463     8 C    1.415    48 H    0.986
    16   6 C    3.925 --     7 C    1.366    19 N    1.357    17 C    1.160
    17   6 C    3.838 --    18 C    1.695    16 C    1.160    49 H    0.997
    18   6 C    3.853 --    17 C    1.695    20 C    1.165    50 H    0.998
    19   7 N    2.568 --    20 C    1.411    16 C    1.357
    20   6 C    3.943 --    19 N    1.411    21 C    1.289    18 C    1.165
    21   6 C    3.852 --    20 C    1.289    22 C    1.289   122 C    1.217
    22   6 C    3.903 --    21 C    1.289    23 C    1.265    26 N    1.249
    23   6 C    3.835 --    24 C    1.586    22 C    1.265    51 H    0.997
    24   6 C    3.816 --    23 C    1.586    25 C    1.256    52 H    0.997
    25   6 C    3.894 --    27 C    1.344    24 C    1.256    26 N    1.223
    26   7 N    3.259 --    22 C    1.249    25 C    1.223    53 H    0.959
    27   6 C    3.828 --    36 C    1.356    25 C    1.344    28 C    1.055
    28   6 C    3.867 --    29 C    1.414    35 C    1.413    27 C    1.055
    29   6 C    3.861 --    30 C    1.464    28 C    1.414    54 H    0.986
    30   6 C    3.905 --    29 C    1.464    31 C    1.383    55 H    0.985
    31   6 C    3.905 --    30 C    1.383    34 C    1.383    32 C    1.124
    32   6 C    4.103 --    33 N    2.963    31 C    1.124
    33   7 N    2.987 --    32 C    2.963
    34   6 C    3.905 --    35 C    1.464    31 C    1.383    56 H    0.985
    35   6 C    3.857 --    34 C    1.464    28 C    1.413    57 H    0.986
    36   6 C    3.946 --    40 N    1.383    27 C    1.356    37 C    1.152
    37   6 C    3.842 --    38 C    1.709    36 C    1.152    58 H    0.998
    38   6 C    3.864 --    37 C    1.709    39 C    1.146    59 H    0.992
    39   6 C    3.967 --     1 C    1.386    40 N    1.374    38 C    1.146
    40   7 N    2.556 --    36 C    1.383    39 C    1.374
    41   1 H    1.031 --     1 C    0.995
    42   1 H    1.014 --     3 C    0.992
    43   1 H    1.029 --     4 C    0.998
    44   1 H    1.080 --     6 N    0.960
    45   1 H    1.049 --     9 C    0.986
    46   1 H    1.036 --    10 C    0.985
    47   1 H    1.036 --    14 C    0.985
    48   1 H    1.045 --    15 C    0.986
    49   1 H    1.033 --    17 C    0.997
    50   1 H    1.030 --    18 C    0.998
    51   1 H    1.026 --    23 C    0.997
    52   1 H    1.029 --    24 C    0.997
    53   1 H    1.084 --    26 N    0.959
    54   1 H    1.048 --    29 C    0.986
    55   1 H    1.036 --    30 C    0.985
    56   1 H    1.036 --    34 C    0.985
    57   1 H    1.045 --    35 C    0.986
    58   1 H    1.033 --    37 C    0.998
    59   1 H    1.017 --    38 C    0.992
    60   6 C    3.817 --    98 C    1.386    61 C    1.374   100 H    0.995
    61   6 C    3.925 --    60 C    1.374    62 C    1.239    65 N    1.229
    62   6 C    3.840 --    63 C    1.601    61 C    1.239   101 H    0.992
    63   6 C    3.824 --    62 C    1.601    64 C    1.249   102 H    0.998
    64   6 C    3.899 --    66 C    1.341    63 C    1.249    65 N    1.231
    65   7 N    3.248 --    64 C    1.231    61 C    1.229   103 H    0.960
    66   6 C    3.842 --    75 C    1.367    64 C    1.341    67 C    1.053
    67   6 C    3.868 --    74 C    1.415    68 C    1.415    66 C    1.053
    68   6 C    3.862 --    69 C    1.464    67 C    1.415   104 H    0.986
    69   6 C    3.905 --    68 C    1.464    70 C    1.383   105 H    0.985
    70   6 C    3.906 --    73 C    1.384    69 C    1.383    71 C    1.124
    71   6 C    4.103 --    72 N    2.963    70 C    1.124
    72   7 N    2.987 --    71 C    2.963
    73   6 C    3.905 --    74 C    1.463    70 C    1.384   106 H    0.985
    74   6 C    3.858 --    73 C    1.463    67 C    1.415   107 H    0.986
    75   6 C    3.925 --    66 C    1.367    78 N    1.357    76 C    1.160
    76   6 C    3.838 --    77 C    1.695    75 C    1.160   108 H    0.997
    77   6 C    3.853 --    76 C    1.695    79 C    1.164   109 H    0.998
    78   7 N    2.568 --    79 C    1.412    75 C    1.357
    79   6 C    3.943 --    78 N    1.412    80 C    1.289    77 C    1.164
    80   6 C    3.852 --    81 C    1.289    79 C    1.289   154 C    1.218
    81   6 C    3.903 --    80 C    1.289    82 C    1.265    85 N    1.249
    82   6 C    3.835 --    83 C    1.586    81 C    1.265   110 H    0.997
    83   6 C    3.816 --    82 C    1.586    84 C    1.256   111 H    0.997
    84   6 C    3.894 --    86 C    1.344    83 C    1.256    85 N    1.223
    85   7 N    3.259 --    81 C    1.249    84 C    1.223   112 H    0.959
    86   6 C    3.828 --    95 C    1.356    84 C    1.344    87 C    1.055
    87   6 C    3.867 --    88 C    1.414    94 C    1.414    86 C    1.055
    88   6 C    3.861 --    89 C    1.464    87 C    1.414   113 H    0.986
    89   6 C    3.905 --    88 C    1.464    90 C    1.383   114 H    0.985
    90   6 C    3.905 --    93 C    1.383    89 C    1.383    91 C    1.124
    91   6 C    4.103 --    92 N    2.963    90 C    1.124
    92   7 N    2.987 --    91 C    2.963
    93   6 C    3.905 --    94 C    1.463    90 C    1.383   115 H    0.985
    94   6 C    3.857 --    93 C    1.463    87 C    1.414   116 H    0.986
    95   6 C    3.945 --    99 N    1.383    86 C    1.356    96 C    1.152
    96   6 C    3.842 --    97 C    1.709    95 C    1.152   117 H    0.998
    97   6 C    3.864 --    96 C    1.709    98 C    1.146   118 H    0.992
    98   6 C    3.967 --    60 C    1.386    99 N    1.374    97 C    1.146
    99   7 N    2.555 --    95 C    1.383    98 C    1.374
   100   1 H    1.031 --    60 C    0.995
   101   1 H    1.014 --    62 C    0.992
   102   1 H    1.029 --    63 C    0.998
   103   1 H    1.080 --    65 N    0.960
   104   1 H    1.049 --    68 C    0.986
   105   1 H    1.036 --    69 C    0.985
   106   1 H    1.036 --    73 C    0.985
   107   1 H    1.045 --    74 C    0.986
   108   1 H    1.033 --    76 C    0.997
   109   1 H    1.030 --    77 C    0.998
   110   1 H    1.026 --    82 C    0.997
   111   1 H    1.029 --    83 C    0.997
   112   1 H    1.084 --    85 N    0.959
   113   1 H    1.048 --    88 C    0.986
   114   1 H    1.036 --    89 C    0.985
   115   1 H    1.036 --    93 C    0.985
   116   1 H    1.045 --    94 C    0.986
   117   1 H    1.033 --    96 C    0.998
   118   1 H    1.017 --    97 C    0.992
   119   6 C    3.836 --   120 C    2.379   123 C    1.354   122 C    0.171
   120   6 C    3.833 --   119 C    2.379   121 C    1.352   124 C    0.171
   121   6 C    3.810 --   122 C    2.477   120 C    1.352
   122   6 C    3.767 --   121 C    2.477    21 C    1.217   119 C    0.171
   123   6 C    3.805 --   124 C    2.473   119 C    1.354
   124   6 C    3.770 --   123 C    2.473   155 C    1.222   120 C    0.171
   125   6 C    3.834 --   126 C    2.369   129 C    1.361   128 C    0.170
   126   6 C    3.834 --   125 C    2.369   127 C    1.361   130 C    0.170
   127   6 C    3.804 --   128 C    2.464   126 C    1.361
   128   6 C    3.768 --   127 C    2.464   175 C    1.229   125 C    0.170
   129   6 C    3.804 --   130 C    2.464   125 C    1.361
   130   6 C    3.768 --   129 C    2.464   213 C    1.229   126 C    0.170
   131   6 C    3.835 --   132 C    2.370   135 C    1.361   134 C    0.170
   132   6 C    3.835 --   131 C    2.370   133 C    1.361   136 C    0.170
   133   6 C    3.805 --   134 C    2.465   132 C    1.361
   134   6 C    3.768 --   133 C    2.465   233 C    1.228   131 C    0.170
   135   6 C    3.805 --   136 C    2.466   131 C    1.361
   136   6 C    3.768 --   135 C    2.466   271 C    1.228   132 C    0.170
   137   6 C    3.835 --   138 C    2.370   141 C    1.361   140 C    0.170
   138   6 C    3.835 --   137 C    2.370   139 C    1.361   142 C    0.170
   139   6 C    3.805 --   140 C    2.466   138 C    1.361
   140   6 C    3.768 --   139 C    2.466   291 C    1.228   137 C    0.170
   141   6 C    3.805 --   142 C    2.465   137 C    1.361
   142   6 C    3.768 --   141 C    2.465   329 C    1.228   138 C    0.170
   143   6 C    3.834 --   144 C    2.369   147 C    1.361   146 C    0.170
   144   6 C    3.834 --   143 C    2.369   145 C    1.361   148 C    0.170
   145   6 C    3.804 --   146 C    2.464   144 C    1.361
   146   6 C    3.768 --   145 C    2.464   349 C    1.229   143 C    0.170
   147   6 C    3.804 --   148 C    2.465   143 C    1.361
   148   6 C    3.768 --   147 C    2.465   387 C    1.229   144 C    0.170
   149   6 C    3.833 --   150 C    2.378   153 C    1.353   152 C    0.171
   150   6 C    3.836 --   149 C    2.378   151 C    1.355   154 C    0.171
   151   6 C    3.805 --   152 C    2.472   150 C    1.355
   152   6 C    3.770 --   151 C    2.472   407 C    1.222   149 C    0.171
   153   6 C    3.809 --   154 C    2.477   149 C    1.353
   154   6 C    3.767 --   153 C    2.477    80 C    1.218   150 C    0.171
   155   6 C    3.831 --   193 C    1.286   156 C    1.282   124 C    1.222
   156   6 C    3.904 --   155 C    1.282   157 C    1.270   160 N    1.251
   157   6 C    3.828 --   158 C    1.579   156 C    1.270   195 H    0.998
   158   6 C    3.818 --   157 C    1.579   159 C    1.262   196 H    0.998
   159   6 C    3.886 --   161 C    1.336   158 C    1.262   160 N    1.222
   160   7 N    3.250 --   156 C    1.251   159 C    1.222   197 H    0.961
   161   6 C    3.832 --   170 C    1.373   159 C    1.336   162 C    1.052
   162   6 C    3.868 --   169 C    1.416   163 C    1.415   161 C    1.052
   163   6 C    3.857 --   164 C    1.463   162 C    1.415   198 H    0.986
   164   6 C    3.905 --   163 C    1.463   165 C    1.383   199 H    0.985
   165   6 C    3.906 --   168 C    1.384   164 C    1.383   166 C    1.124
   166   6 C    4.103 --   167 N    2.963   165 C    1.124
   167   7 N    2.987 --   166 C    2.963
   168   6 C    3.905 --   169 C    1.463   165 C    1.384   200 H    0.985
   169   6 C    3.861 --   168 C    1.463   162 C    1.416   201 H    0.986
   170   6 C    3.924 --   161 C    1.373   173 N    1.352   171 C    1.161
   171   6 C    3.838 --   172 C    1.693   170 C    1.161   202 H    0.998
   172   6 C    3.850 --   171 C    1.693   174 C    1.167   203 H    0.999
   173   7 N    2.552 --   174 C    1.416   170 C    1.352
   174   6 C    3.943 --   173 N    1.416   175 C    1.282   172 C    1.167
   175   6 C    3.831 --   174 C    1.282   176 C    1.280   128 C    1.229
   176   6 C    3.903 --   175 C    1.280   177 C    1.271   180 N    1.251
   177   6 C    3.829 --   178 C    1.578   176 C    1.271   204 H    0.998
   178   6 C    3.817 --   177 C    1.578   179 C    1.263   205 H    0.998
   179   6 C    3.886 --   181 C    1.335   178 C    1.263   180 N    1.223
   180   7 N    3.252 --   176 C    1.251   179 C    1.223   206 H    0.961
   181   6 C    3.831 --   190 C    1.373   179 C    1.335   182 C    1.053
   182   6 C    3.868 --   183 C    1.415   189 C    1.415   181 C    1.053
   183   6 C    3.857 --   184 C    1.463   182 C    1.415   207 H    0.986
   184   6 C    3.905 --   183 C    1.463   185 C    1.384   208 H    0.985
   185   6 C    3.906 --   184 C    1.384   188 C    1.383   186 C    1.124
   186   6 C    4.103 --   187 N    2.963   185 C    1.124
   187   7 N    2.987 --   186 C    2.963
   188   6 C    3.905 --   189 C    1.463   185 C    1.383   209 H    0.985
   189   6 C    3.861 --   188 C    1.463   182 C    1.415   210 H    0.986
   190   6 C    3.924 --   181 C    1.373   194 N    1.353   191 C    1.160
   191   6 C    3.838 --   192 C    1.694   190 C    1.160   211 H    0.998
   192   6 C    3.850 --   191 C    1.694   193 C    1.166   212 H    0.999
   193   6 C    3.944 --   194 N    1.414   155 C    1.286   192 C    1.166
   194   7 N    2.550 --   193 C    1.414   190 C    1.353
   195   1 H    1.027 --   157 C    0.998
   196   1 H    1.030 --   158 C    0.998
   197   1 H    1.082 --   160 N    0.961
   198   1 H    1.045 --   163 C    0.986
   199   1 H    1.036 --   164 C    0.985
   200   1 H    1.036 --   168 C    0.985
   201   1 H    1.048 --   169 C    0.986
   202   1 H    1.035 --   171 C    0.998
   203   1 H    1.031 --   172 C    0.999
   204   1 H    1.026 --   177 C    0.998
   205   1 H    1.030 --   178 C    0.998
   206   1 H    1.082 --   180 N    0.961
   207   1 H    1.045 --   183 C    0.986
   208   1 H    1.036 --   184 C    0.985
   209   1 H    1.036 --   188 C    0.985
   210   1 H    1.049 --   189 C    0.986
   211   1 H    1.035 --   191 C    0.998
   212   1 H    1.031 --   192 C    0.999
   213   6 C    3.832 --   251 C    1.282   214 C    1.279   130 C    1.229
   214   6 C    3.904 --   213 C    1.279   215 C    1.272   218 N    1.251
   215   6 C    3.829 --   216 C    1.578   214 C    1.272   253 H    0.998
   216   6 C    3.817 --   215 C    1.578   217 C    1.263   254 H    0.998
   217   6 C    3.886 --   219 C    1.335   216 C    1.263   218 N    1.223
   218   7 N    3.251 --   214 C    1.251   217 C    1.223   255 H    0.961
   219   6 C    3.831 --   228 C    1.373   217 C    1.335   220 C    1.052
   220   6 C    3.868 --   227 C    1.416   221 C    1.415   219 C    1.052
   221   6 C    3.857 --   222 C    1.463   220 C    1.415   256 H    0.986
   222   6 C    3.905 --   221 C    1.463   223 C    1.384   257 H    0.985
   223   6 C    3.906 --   226 C    1.384   222 C    1.384   224 C    1.124
   224   6 C    4.103 --   225 N    2.963   223 C    1.124
   225   7 N    2.987 --   224 C    2.963
   226   6 C    3.905 --   227 C    1.463   223 C    1.384   258 H    0.985
   227   6 C    3.861 --   226 C    1.463   220 C    1.416   259 H    0.986
   228   6 C    3.924 --   219 C    1.373   231 N    1.352   229 C    1.160
   229   6 C    3.838 --   230 C    1.693   228 C    1.160   260 H    0.998
   230   6 C    3.850 --   229 C    1.693   232 C    1.167   261 H    0.999
   231   7 N    2.551 --   232 C    1.416   228 C    1.352
   232   6 C    3.943 --   231 N    1.416   233 C    1.283   230 C    1.167
   233   6 C    3.832 --   232 C    1.283   234 C    1.280   134 C    1.228
   234   6 C    3.904 --   233 C    1.280   235 C    1.271   238 N    1.251
   235   6 C    3.829 --   236 C    1.578   234 C    1.271   262 H    0.998
   236   6 C    3.818 --   235 C    1.578   237 C    1.263   263 H    0.998
   237   6 C    3.886 --   239 C    1.336   236 C    1.263   238 N    1.222
   238   7 N    3.251 --   234 C    1.251   237 C    1.222   264 H    0.961
   239   6 C    3.831 --   248 C    1.373   237 C    1.336   240 C    1.052
   240   6 C    3.868 --   241 C    1.416   247 C    1.415   239 C    1.052
   241   6 C    3.857 --   242 C    1.463   240 C    1.416   265 H    0.986
   242   6 C    3.905 --   241 C    1.463   243 C    1.384   266 H    0.985
   243   6 C    3.906 --   242 C    1.384   246 C    1.384   244 C    1.124
   244   6 C    4.103 --   245 N    2.963   243 C    1.124
   245   7 N    2.987 --   244 C    2.963
   246   6 C    3.905 --   247 C    1.463   243 C    1.384   267 H    0.985
   247   6 C    3.861 --   246 C    1.463   240 C    1.415   268 H    0.986
   248   6 C    3.924 --   239 C    1.373   252 N    1.352   249 C    1.160
   249   6 C    3.838 --   250 C    1.693   248 C    1.160   269 H    0.998
   250   6 C    3.850 --   249 C    1.693   251 C    1.167   270 H    0.999
   251   6 C    3.943 --   252 N    1.416   213 C    1.282   250 C    1.167
   252   7 N    2.551 --   251 C    1.416   248 C    1.352
   253   1 H    1.027 --   215 C    0.998
   254   1 H    1.030 --   216 C    0.998
   255   1 H    1.082 --   218 N    0.961
   256   1 H    1.045 --   221 C    0.986
   257   1 H    1.036 --   222 C    0.985
   258   1 H    1.036 --   226 C    0.985
   259   1 H    1.049 --   227 C    0.986
   260   1 H    1.035 --   229 C    0.998
   261   1 H    1.031 --   230 C    0.999
   262   1 H    1.026 --   235 C    0.998
   263   1 H    1.030 --   236 C    0.998
   264   1 H    1.082 --   238 N    0.961
   265   1 H    1.045 --   241 C    0.986
   266   1 H    1.036 --   242 C    0.985
   267   1 H    1.036 --   246 C    0.985
   268   1 H    1.049 --   247 C    0.986
   269   1 H    1.035 --   249 C    0.998
   270   1 H    1.031 --   250 C    0.999
   271   6 C    3.833 --   309 C    1.283   272 C    1.280   136 C    1.228
   272   6 C    3.904 --   271 C    1.280   273 C    1.271   276 N    1.251
   273   6 C    3.830 --   274 C    1.578   272 C    1.271   311 H    0.998
   274   6 C    3.818 --   273 C    1.578   275 C    1.263   312 H    0.998
   275   6 C    3.887 --   277 C    1.336   274 C    1.263   276 N    1.223
   276   7 N    3.251 --   272 C    1.251   275 C    1.223   313 H    0.961
   277   6 C    3.831 --   286 C    1.373   275 C    1.336   278 C    1.052
   278   6 C    3.868 --   285 C    1.416   279 C    1.415   277 C    1.052
   279   6 C    3.857 --   280 C    1.463   278 C    1.415   314 H    0.986
   280   6 C    3.905 --   279 C    1.463   281 C    1.384   315 H    0.985
   281   6 C    3.906 --   284 C    1.384   280 C    1.384   282 C    1.124
   282   6 C    4.103 --   283 N    2.963   281 C    1.124
   283   7 N    2.987 --   282 C    2.963
   284   6 C    3.905 --   285 C    1.463   281 C    1.384   316 H    0.985
   285   6 C    3.861 --   284 C    1.463   278 C    1.416   317 H    0.986
   286   6 C    3.924 --   277 C    1.373   289 N    1.352   287 C    1.160
   287   6 C    3.838 --   288 C    1.693   286 C    1.160   318 H    0.998
   288   6 C    3.851 --   287 C    1.693   290 C    1.167   319 H    0.999
   289   7 N    2.552 --   290 C    1.416   286 C    1.352
   290   6 C    3.943 --   289 N    1.416   291 C    1.283   288 C    1.167
   291   6 C    3.833 --   290 C    1.283   292 C    1.280   140 C    1.228
   292   6 C    3.904 --   291 C    1.280   293 C    1.271   296 N    1.251
   293   6 C    3.830 --   294 C    1.578   292 C    1.271   320 H    0.998
   294   6 C    3.818 --   293 C    1.578   295 C    1.263   321 H    0.998
   295   6 C    3.887 --   297 C    1.336   294 C    1.263   296 N    1.223
   296   7 N    3.251 --   292 C    1.251   295 C    1.223   322 H    0.961
   297   6 C    3.831 --   306 C    1.373   295 C    1.336   298 C    1.052
   298   6 C    3.868 --   305 C    1.416   299 C    1.415   297 C    1.052
   299   6 C    3.857 --   300 C    1.463   298 C    1.415   323 H    0.986
   300   6 C    3.905 --   299 C    1.463   301 C    1.384   324 H    0.985
   301   6 C    3.906 --   300 C    1.384   304 C    1.384   302 C    1.124
   302   6 C    4.103 --   303 N    2.963   301 C    1.124
   303   7 N    2.987 --   302 C    2.963
   304   6 C    3.905 --   305 C    1.463   301 C    1.384   325 H    0.985
   305   6 C    3.861 --   304 C    1.463   298 C    1.416   326 H    0.986
   306   6 C    3.924 --   297 C    1.373   310 N    1.352   307 C    1.160
   307   6 C    3.838 --   308 C    1.693   306 C    1.160   327 H    0.998
   308   6 C    3.851 --   307 C    1.693   309 C    1.167   328 H    0.999
   309   6 C    3.943 --   310 N    1.416   271 C    1.283   308 C    1.167
   310   7 N    2.552 --   309 C    1.416   306 C    1.352
   311   1 H    1.026 --   273 C    0.998
   312   1 H    1.030 --   274 C    0.998
   313   1 H    1.082 --   276 N    0.961
   314   1 H    1.045 --   279 C    0.986
   315   1 H    1.036 --   280 C    0.985
   316   1 H    1.036 --   284 C    0.985
   317   1 H    1.049 --   285 C    0.986
   318   1 H    1.035 --   287 C    0.998
   319   1 H    1.031 --   288 C    0.999
   320   1 H    1.026 --   293 C    0.998
   321   1 H    1.030 --   294 C    0.998
   322   1 H    1.082 --   296 N    0.961
   323   1 H    1.045 --   299 C    0.986
   324   1 H    1.036 --   300 C    0.985
   325   1 H    1.036 --   304 C    0.985
   326   1 H    1.049 --   305 C    0.986
   327   1 H    1.035 --   307 C    0.998
   328   1 H    1.031 --   308 C    0.999
   329   6 C    3.832 --   367 C    1.283   330 C    1.280   142 C    1.228
   330   6 C    3.904 --   329 C    1.280   331 C    1.271   334 N    1.251
   331   6 C    3.829 --   332 C    1.578   330 C    1.271   369 H    0.998
   332   6 C    3.818 --   331 C    1.578   333 C    1.263   370 H    0.998
   333   6 C    3.886 --   335 C    1.336   332 C    1.263   334 N    1.222
   334   7 N    3.251 --   330 C    1.251   333 C    1.222   371 H    0.961
   335   6 C    3.831 --   344 C    1.373   333 C    1.336   336 C    1.052
   336   6 C    3.868 --   337 C    1.416   343 C    1.415   335 C    1.052
   337   6 C    3.857 --   338 C    1.463   336 C    1.416   372 H    0.986
   338   6 C    3.905 --   337 C    1.463   339 C    1.384   373 H    0.985
   339   6 C    3.906 --   338 C    1.384   342 C    1.384   340 C    1.124
   340   6 C    4.103 --   341 N    2.963   339 C    1.124
   341   7 N    2.987 --   340 C    2.963
   342   6 C    3.905 --   343 C    1.463   339 C    1.384   374 H    0.985
   343   6 C    3.861 --   342 C    1.463   336 C    1.415   375 H    0.986
   344   6 C    3.924 --   335 C    1.373   347 N    1.352   345 C    1.160
   345   6 C    3.838 --   346 C    1.693   344 C    1.160   376 H    0.998
   346   6 C    3.850 --   345 C    1.693   348 C    1.167   377 H    0.999
   347   7 N    2.551 --   348 C    1.416   344 C    1.352
   348   6 C    3.943 --   347 N    1.416   349 C    1.282   346 C    1.167
   349   6 C    3.832 --   348 C    1.282   350 C    1.279   146 C    1.229
   350   6 C    3.904 --   349 C    1.279   351 C    1.272   354 N    1.251
   351   6 C    3.829 --   352 C    1.578   350 C    1.272   378 H    0.998
   352   6 C    3.817 --   351 C    1.578   353 C    1.263   379 H    0.998
   353   6 C    3.886 --   355 C    1.335   352 C    1.263   354 N    1.223
   354   7 N    3.251 --   350 C    1.251   353 C    1.223   380 H    0.961
   355   6 C    3.831 --   364 C    1.373   353 C    1.335   356 C    1.052
   356   6 C    3.868 --   363 C    1.416   357 C    1.415   355 C    1.052
   357   6 C    3.857 --   358 C    1.463   356 C    1.415   381 H    0.986
   358   6 C    3.905 --   357 C    1.463   359 C    1.384   382 H    0.985
   359   6 C    3.906 --   362 C    1.384   358 C    1.384   360 C    1.124
   360   6 C    4.103 --   361 N    2.963   359 C    1.124
   361   7 N    2.987 --   360 C    2.963
   362   6 C    3.905 --   363 C    1.463   359 C    1.384   383 H    0.985
   363   6 C    3.861 --   362 C    1.463   356 C    1.416   384 H    0.986
   364   6 C    3.924 --   355 C    1.373   368 N    1.352   365 C    1.160
   365   6 C    3.838 --   366 C    1.693   364 C    1.160   385 H    0.998
   366   6 C    3.850 --   365 C    1.693   367 C    1.167   386 H    0.999
   367   6 C    3.943 --   368 N    1.416   329 C    1.283   366 C    1.167
   368   7 N    2.551 --   367 C    1.416   364 C    1.352
   369   1 H    1.026 --   331 C    0.998
   370   1 H    1.030 --   332 C    0.998
   371   1 H    1.082 --   334 N    0.961
   372   1 H    1.045 --   337 C    0.986
   373   1 H    1.036 --   338 C    0.985
   374   1 H    1.036 --   342 C    0.985
   375   1 H    1.049 --   343 C    0.986
   376   1 H    1.035 --   345 C    0.998
   377   1 H    1.031 --   346 C    0.999
   378   1 H    1.027 --   351 C    0.998
   379   1 H    1.030 --   352 C    0.998
   380   1 H    1.082 --   354 N    0.961
   381   1 H    1.045 --   357 C    0.986
   382   1 H    1.036 --   358 C    0.985
   383   1 H    1.036 --   362 C    0.985
   384   1 H    1.049 --   363 C    0.986
   385   1 H    1.035 --   365 C    0.998
   386   1 H    1.031 --   366 C    0.999
   387   6 C    3.831 --   425 C    1.282   388 C    1.280   148 C    1.229
   388   6 C    3.903 --   387 C    1.280   389 C    1.271   392 N    1.251
   389   6 C    3.829 --   390 C    1.578   388 C    1.271   427 H    0.998
   390   6 C    3.817 --   389 C    1.578   391 C    1.263   428 H    0.998
   391   6 C    3.886 --   393 C    1.335   390 C    1.263   392 N    1.223
   392   7 N    3.251 --   388 C    1.251   391 C    1.223   429 H    0.961
   393   6 C    3.831 --   402 C    1.373   391 C    1.335   394 C    1.052
   394   6 C    3.868 --   395 C    1.415   401 C    1.415   393 C    1.052
   395   6 C    3.857 --   396 C    1.463   394 C    1.415   430 H    0.986
   396   6 C    3.905 --   395 C    1.463   397 C    1.384   431 H    0.985
   397   6 C    3.906 --   396 C    1.384   400 C    1.383   398 C    1.124
   398   6 C    4.103 --   399 N    2.963   397 C    1.124
   399   7 N    2.987 --   398 C    2.963
   400   6 C    3.905 --   401 C    1.463   397 C    1.383   432 H    0.985
   401   6 C    3.861 --   400 C    1.463   394 C    1.415   433 H    0.986
   402   6 C    3.924 --   393 C    1.373   405 N    1.352   403 C    1.160
   403   6 C    3.838 --   404 C    1.694   402 C    1.160   434 H    0.998
   404   6 C    3.850 --   403 C    1.694   406 C    1.166   435 H    0.999
   405   7 N    2.550 --   406 C    1.414   402 C    1.352
   406   6 C    3.944 --   405 N    1.414   407 C    1.285   404 C    1.166
   407   6 C    3.831 --   406 C    1.285   408 C    1.282   152 C    1.222
   408   6 C    3.904 --   407 C    1.282   409 C    1.270   412 N    1.251
   409   6 C    3.828 --   410 C    1.579   408 C    1.270   436 H    0.998
   410   6 C    3.818 --   409 C    1.579   411 C    1.262   437 H    0.998
   411   6 C    3.886 --   413 C    1.336   410 C    1.262   412 N    1.222
   412   7 N    3.250 --   408 C    1.251   411 C    1.222   438 H    0.961
   413   6 C    3.832 --   422 C    1.373   411 C    1.336   414 C    1.052
   414   6 C    3.868 --   421 C    1.416   415 C    1.415   413 C    1.052
   415   6 C    3.858 --   416 C    1.463   414 C    1.415   439 H    0.986
   416   6 C    3.905 --   415 C    1.463   417 C    1.384   440 H    0.985
   417   6 C    3.906 --   420 C    1.384   416 C    1.384   418 C    1.124
   418   6 C    4.103 --   419 N    2.963   417 C    1.124
   419   7 N    2.987 --   418 C    2.963
   420   6 C    3.905 --   421 C    1.463   417 C    1.384   441 H    0.985
   421   6 C    3.861 --   420 C    1.463   414 C    1.416   442 H    0.986
   422   6 C    3.924 --   413 C    1.373   426 N    1.352   423 C    1.161
   423   6 C    3.838 --   424 C    1.693   422 C    1.161   443 H    0.998
   424   6 C    3.850 --   423 C    1.693   425 C    1.167   444 H    0.999
   425   6 C    3.943 --   426 N    1.416   387 C    1.282   424 C    1.167
   426   7 N    2.552 --   425 C    1.416   422 C    1.352
   427   1 H    1.026 --   389 C    0.998
   428   1 H    1.030 --   390 C    0.998
   429   1 H    1.082 --   392 N    0.961
   430   1 H    1.045 --   395 C    0.986
   431   1 H    1.036 --   396 C    0.985
   432   1 H    1.036 --   400 C    0.985
   433   1 H    1.049 --   401 C    0.986
   434   1 H    1.035 --   403 C    0.998
   435   1 H    1.031 --   404 C    0.999
   436   1 H    1.027 --   409 C    0.998
   437   1 H    1.030 --   410 C    0.998
   438   1 H    1.082 --   412 N    0.961
   439   1 H    1.045 --   415 C    0.986
   440   1 H    1.036 --   416 C    0.985
   441   1 H    1.036 --   420 C    0.985
   442   1 H    1.048 --   421 C    0.986
   443   1 H    1.035 --   423 C    0.998
   444   1 H    1.031 --   424 C    0.999
 ---------------------------------------------------------------------------

Topologies differ in total number of bonds
Writing topology from bond orders to xtbtopo.mol

 dipole moment from electron density (au)
     X       Y       Z   
-260.0281  -0.2059  -0.2873  total (Debye):  660.926


           -------------------------------------------------
          | TOTAL ENERGY             -891.127451296515 Eh   |
          | GRADIENT NORM               0.131827820568 Eh/α |
          | HOMO-LUMO GAP               0.058257183697 eV   |
           -------------------------------------------------
########################################################################
[WARNING] Runtime exception occurred
-1- restart_readRestart: Dimension missmatch in restart file.
########################################################################

------------------------------------------------------------------------
 * finished run on 2022/07/27 at 20:15:33.432     
------------------------------------------------------------------------
 total:
 * wall-time:     0 d,  0 h,  1 min, 24.391 sec
 *  cpu-time:     0 d,  0 h,  1 min, 24.032 sec
 * ratio c/w:     0.996 speedup
 SCF:
 * wall-time:     0 d,  0 h,  1 min, 23.216 sec
 *  cpu-time:     0 d,  0 h,  1 min, 22.894 sec
 * ratio c/w:     0.996 speedup

