      -----------------------------------------------------------      
     |                   =====================                   |     
     |                           x T B                           |     
     |                   =====================                   |     
     |                         S. Grimme                         |     
     |          Mulliken Center for Theoretical Chemistry        |     
     |                    University of Bonn                     |     
      -----------------------------------------------------------      

   * xtb version 6.5.1 (b24c23e) compiled by 'conda@728c89f4b128' on 2022-07-12

   xtb is free software: you can redistribute it and/or modify it under
   the terms of the GNU Lesser General Public License as published by
   the Free Software Foundation, either version 3 of the License, or
   (at your option) any later version.
   
   xtb is distributed in the hope that it will be useful,
   but WITHOUT ANY WARRANTY; without even the implied warranty of
   MERCHANTABILITY or FITNESS FOR A PARTICULAR PURPOSE.  See the
   GNU Lesser General Public License for more details.
   
   Cite this work as:
   * C. Bannwarth, E. Caldeweyher, S. Ehlert, A. Hansen, P. Pracht,
     J. Seibert, S. Spicher, S. Grimme, WIREs Comput. Mol. Sci., 2020, 11,
     e01493. DOI: 10.1002/wcms.1493
   
   for GFN2-xTB:
   * C. Bannwarth, S. Ehlert and S. Grimme., J. Chem. Theory Comput., 2019,
     15, 1652-1671. DOI: 10.1021/acs.jctc.8b01176
   for GFN1-xTB:
   * S. Grimme, C. Bannwarth, P. Shushkov, J. Chem. Theory Comput., 2017,
     13, 1989-2009. DOI: 10.1021/acs.jctc.7b00118
   for GFN0-xTB:
   * P. Pracht, E. Caldeweyher, S. Ehlert, S. Grimme, ChemRxiv, 2019, preprint.
     DOI: 10.26434/chemrxiv.8326202.v1
   for GFN-FF:
   * S. Spicher and S. Grimme, Angew. Chem. Int. Ed., 2020, 59, 15665-15673.
     DOI: 10.1002/anie.202004239
   
   for ALPB and GBSA implicit solvation:
   * S. Ehlert, M. Stahn, S. Spicher, S. Grimme, J. Chem. Theory Comput.,
     2021, 17, 4250-4261. DOI: 10.1021/acs.jctc.1c00471
   
   for DFT-D4:
   * E. Caldeweyher, C. Bannwarth and S. Grimme, J. Chem. Phys., 2017,
     147, 034112. DOI: 10.1063/1.4993215
   * E. Caldeweyher, S. Ehlert, A. Hansen, H. Neugebauer, S. Spicher,
     C. Bannwarth and S. Grimme, J. Chem. Phys., 2019, 150, 154122.
     DOI: 10.1063/1.5090222
   * E. Caldeweyher, J.-M. Mewes, S. Ehlert and S. Grimme, Phys. Chem. Chem. Phys.
     2020, 22, 8499-8512. DOI: 10.1039/D0CP00502A
   
   for sTDA-xTB:
   * S. Grimme and C. Bannwarth, J. Chem. Phys., 2016, 145, 054103.
     DOI: 10.1063/1.4959605
   
   in the mass-spec context:
   * V. Asgeirsson, C. Bauer and S. Grimme, Chem. Sci., 2017, 8, 4879.
     DOI: 10.1039/c7sc00601b
   * J. Koopman and S. Grimme, ACS Omega 2019, 4, 12, 15120-15133.
     DOI: 10.1021/acsomega.9b02011
   
   for metadynamics refer to:
   * S. Grimme, J. Chem. Theory Comput., 2019, 155, 2847-2862
     DOI: 10.1021/acs.jctc.9b00143
   
   for SPH calculations refer to:
   * S. Spicher and S. Grimme, J. Chem. Theory Comput., 2021, 17, 1701-1714
     DOI: 10.1021/acs.jctc.0c01306
   
   with help from (in alphabetical order)
   P. Atkinson, C. Bannwarth, F. Bohle, G. Brandenburg, E. Caldeweyher
   M. Checinski, S. Dohm, S. Ehlert, S. Ehrlich, I. Gerasimov, C. Hölzer
   A. Katbashev, J. Koopman, C. Lavigne, S. Lehtola, F. März, M. Müller,
   F. Musil, H. Neugebauer, J. Pisarek, C. Plett, P. Pracht, F. Pultar,
   J. Seibert, P. Shushkov, S. Spicher, M. Stahn, M. Steiner, T. Strunk,
   J. Stückrath, T. Rose, and J. Unsleber
   
 * started run on 2022/07/30 at 09:12:55.855     

           -------------------------------------------------
          |                Calculation Setup                |
           -------------------------------------------------

          program call               : xtb Cu_PhOH_C8_3.xyz --gfn 1 --opt -T 48
          hostname                   : cx3-15-15.cx3.hpc.ic.ac.uk
          coordinate file            : Cu_PhOH_C8_3.xyz
          omp threads                :                     1

   ID    Z sym.   atoms
    1   29 Cu     1, 59, 133
    2    6 C      2-6, 8-12, 14-18, 20-25, 27-31, 33-38, 60-64, 66-70, 72-76,
                  78-83, 85-89, 91-96, 117-132, 134-138, 140-144, 146-150,
                  152-157, 159-163, 165-170
    3    7 N      7, 19, 26, 39, 65, 77, 84, 97, 139, 151, 158, 171
    4    8 O      13, 32, 71, 90, 145, 164
    5    1 H      40-58, 98-116, 172-189

molecular fragmentation (1/2 indicates fragments):
111111111111111111111111111111111111111111111111111111111122222222222222
222222222222222222222222222222222222222222222222222222222222222222222222
222222222222222222222222222222222222222222222
# atoms in fragment 1/2:    58   131
 fragment masses (1/2) :      555.07     1301.30
CMA distance (Bohr)    :  52.633
constraining FC (au)   :  0.0500
########################################################################
[WARNING] Please study the warnings concerning your input carefully
-1- prog_main_parseArguments: Unknown option '-T' provided
########################################################################

           -------------------------------------------------
          |                 G F N 1 - x T B                 |
           -------------------------------------------------

        Reference                      10.1021/acs.jctc.7b00118
      * Hamiltonian:
        H0-scaling (s, p, d)           1.850000    2.250000    2.000000
        zeta-weighting                 0.000000
      * Dispersion:
        s8                             2.400000
        a1                             0.630000
        a2                             5.000000
        s9                             0.000000
      * Repulsion:
        kExp                           1.500000
        rExp                           1.000000
      * Coulomb:
        alpha                          2.000000
        third order                    atomic
        anisotropic                    false
      * Halogen bond correction:
        rad-scale                      1.300000
        damping                        0.440000


          ...................................................
          :                      SETUP                      :
          :.................................................:
          :  # basis functions                 662          :
          :  # atomic orbitals                 659          :
          :  # shells                          381          :
          :  # electrons                       633          :
          :  # halogen bonds                     0          :
          :  max. iterations                   250          :
          :  Hamiltonian                  GFN1-xTB          :
          :  restarted?                      false          :
          :  GBSA solvation                  false          :
          :  PC potential                    false          :
          :  electronic temp.          300.0000000     K    :
          :  accuracy                    1.0000000          :
          :  -> integral cutoff          0.2500000E+02      :
          :  -> integral neglect         0.1000000E-07      :
          :  -> SCF convergence          0.1000000E-05 Eh   :
          :  -> wf. convergence          0.2000000E-04 e    :
          :  Broyden damping             0.4000000          :
          ...................................................

 iter      E             dE          RMSdq      gap      omega  full diag
   1   -350.5866319 -0.350587E+03  0.107E+01    0.24       0.0  T
   2   -343.0882607  0.749837E+01  0.713E+00    0.11       1.0  T
   3    -10.7403185  0.332348E+03  0.134E+01    0.03       1.0  T
   4    645.0532817  0.655794E+03  0.181E+01    0.05       1.0  T
   5   -166.6074704 -0.811661E+03  0.913E+00    0.00       1.0  T
   6   -339.5023022 -0.172895E+03  0.384E+00    0.02       1.0  T
   7   -336.5143916  0.298791E+01  0.303E+00    0.08       1.0  T
   8   -348.6776251 -0.121632E+02  0.219E+00    0.02       1.0  T
   9   -347.9937220  0.683903E+00  0.190E+00    0.04       1.0  T
  10   -346.5458106  0.144791E+01  0.173E+00    0.06       1.0  T
  11   -349.0507559 -0.250495E+01  0.148E+00    0.16       1.0  T
  12   -348.9064780  0.144278E+00  0.128E+00    0.09       1.0  T
  13   -348.7578434  0.148635E+00  0.141E+00    0.09       1.0  T
  14   -350.0149726 -0.125713E+01  0.127E+00    0.02       1.0  T
  15   -350.9312374 -0.916265E+00  0.107E+00    0.02       1.0  T
  16   -350.9227258  0.851161E-02  0.107E+00    0.05       1.0  T
  17   -350.9242964 -0.157062E-02  0.103E+00    0.02       1.0  T
  18   -350.9449518 -0.206553E-01  0.976E-01    0.15       1.0  T
  19   -350.9763957 -0.314440E-01  0.913E-01    0.14       1.0  T
  20   -350.9704714  0.592429E-02  0.924E-01    0.15       1.0  T
  21   -350.9690289  0.144252E-02  0.895E-01    0.15       1.0  T
  22   -350.9713048 -0.227592E-02  0.831E-01    0.02       1.0  T
  23   -350.9978926 -0.265878E-01  0.799E-01    0.02       1.0  T
  24   -350.9654342  0.324584E-01  0.665E-01    0.09       1.0  T
  25   -351.0956107 -0.130177E+00  0.592E-01    0.12       1.0  T
  26   -351.1485882 -0.529775E-01  0.508E-01    0.07       1.0  T
  27   -351.3412863 -0.192698E+00  0.711E-01    0.02       1.0  T
  28   -351.2662825  0.750038E-01  0.563E-01    0.02       1.0  T
  29   -351.2710922 -0.480973E-02  0.555E-01    0.02       1.0  T
  30   -351.3460375 -0.749453E-01  0.645E-01    0.03       1.0  T
  31   -351.3485274 -0.248985E-02  0.673E-01    0.07       1.0  T
  32   -351.3162179  0.323095E-01  0.586E-01    0.03       1.0  T
  33   -351.3358181 -0.196002E-01  0.582E-01    0.08       1.0  T
  34   -351.3211071  0.147110E-01  0.572E-01    0.12       1.0  T
  35   -351.3623888 -0.412817E-01  0.492E-01    0.06       1.0  T
  36   -351.4074900 -0.451012E-01  0.334E-01    0.00       1.0  T
  37   -351.3937102  0.137798E-01  0.257E-01    0.00       1.0  T
  38   -351.4061232 -0.124130E-01  0.249E-01    0.03       1.0  T
  39   -351.3995133  0.660990E-02  0.239E-01    0.02       1.0  T
  40   -351.4186659 -0.191526E-01  0.201E-01    0.01       1.0  T
  41   -351.4375683 -0.189024E-01  0.155E-01    0.02       1.0  T
  42   -351.4407747 -0.320635E-02  0.145E-01    0.03       1.0  T
  43   -351.4406903  0.843680E-04  0.132E-01    0.01       1.0  T
  44   -351.4474679 -0.677755E-02  0.102E-01    0.01       1.0  T
  45   -351.4514344 -0.396649E-02  0.642E-02    0.02       1.0  T
  46   -351.4520898 -0.655446E-03  0.584E-02    0.02       1.0  T
  47   -351.4547368 -0.264696E-02  0.282E-02    0.02       1.0  T
  48   -351.4549299 -0.193123E-03  0.213E-02    0.02       1.0  T
  49   -351.4553051 -0.375226E-03  0.113E-02    0.02       1.0  T
  50   -351.4552449  0.602458E-04  0.136E-02    0.02       1.0  T
  51   -351.4553165 -0.716910E-04  0.837E-03    0.02       1.0  T
  52   -351.4553610 -0.445030E-04  0.570E-03    0.02       1.3  T
  53   -351.4553425  0.185217E-04  0.559E-03    0.02       1.3  T
  54   -351.4553557 -0.131417E-04  0.444E-03    0.02       1.6  T
  55   -351.4553692 -0.135066E-04  0.277E-03    0.02       2.6  T
  56   -351.4553747 -0.555170E-05  0.118E-03    0.02       6.2  T
  57   -351.4553746  0.110122E-06  0.995E-04    0.02       7.3  T
  58   -351.4553751 -0.492193E-06  0.275E-04    0.02      26.4  T
  59   -351.4553751 -0.299790E-07  0.140E-04    0.02      52.0  T
  60   -351.4553751  0.437973E-08  0.209E-04    0.02      34.8  T
  61   -351.4553751 -0.379049E-08  0.157E-04    0.02      46.3  T

   *** convergence criteria satisfied after 61 iterations ***

         #    Occupation            Energy/Eh            Energy/eV
      -------------------------------------------------------------
         1        2.0000           -0.7932747             -21.5861
       ...           ...                  ...                  ...
       311        2.0000           -0.3870128             -10.5312
       312        2.0000           -0.3787024             -10.3050
       313        2.0000           -0.3729773             -10.1492
       314        2.0000           -0.3665515              -9.9744
       315        1.9998           -0.3629354              -9.8760
       316        0.9460           -0.3540950              -9.6354
       317        0.8981           -0.3539967              -9.6327 (HOMO)
       318        0.5341           -0.3531805              -9.6105 (LUMO)
       319        0.3663           -0.3526964              -9.5974
       320        0.2541           -0.3522714              -9.5858
       321        0.0017           -0.3473590              -9.4521
       322                         -0.3300749              -8.9818
       ...                                ...                  ...
       659                          2.4237877              65.9546
      -------------------------------------------------------------
                  HL-Gap            0.0008162 Eh            0.0222 eV
             Fermi-level           -0.3542056 Eh           -9.6384 eV

 SCC (total)                   0 d,  0 h,  0 min,  7.670 sec
 SCC setup                      ...        0 min,  0.010 sec (  0.124%)
 Dispersion                     ...        0 min,  0.006 sec (  0.078%)
 classical contributions        ...        0 min,  0.002 sec (  0.024%)
 integral evaluation            ...        0 min,  0.189 sec (  2.462%)
 iterations                     ...        0 min,  7.041 sec ( 91.804%)
 molecular gradient             ...        0 min,  0.398 sec (  5.189%)
 printout                       ...        0 min,  0.024 sec (  0.318%)

         :::::::::::::::::::::::::::::::::::::::::::::::::::::
         ::                     SUMMARY                     ::
         :::::::::::::::::::::::::::::::::::::::::::::::::::::
         :: total energy            -345.548626834985 Eh    ::
         :: gradient norm              1.487438239677 Eh/a0 ::
         :: HOMO-LUMO gap              0.022210125401 eV    ::
         ::.................................................::
         :: SCC energy              -351.455375138402 Eh    ::
         :: -> electrostatic           0.422166823262 Eh    ::
         :: repulsion energy           6.070842355714 Eh    ::
         :: dispersion energy         -0.164094052298 Eh    ::
         :: halogen bond corr.         0.000000000000 Eh    ::
         :: add. restraining           0.000000000000 Eh    ::
         :: total charge               0.000000000000 e     ::
         :::::::::::::::::::::::::::::::::::::::::::::::::::::

      ----------------------------------------------------------- 
     |                   =====================                   |
     |                        A N C O P T                        |
     |                   =====================                   |
     |               Approximate Normal Coordinate               |
     |                Rational Function Optimizer                |
      ----------------------------------------------------------- 

          ...................................................
          :                      SETUP                      :
          :.................................................:
          :   optimization level            normal          :
          :   max. optcycles                   567          :
          :   ANC micro-cycles                  20          :
          :   degrees of freedom               561          :
          :.................................................:
          :   RF solver                   davidson          :
          :   write xtbopt.log                true          :
          :   linear?                        false          :
          :   energy convergence         0.5000000E-05 Eh   :
          :   grad. convergence          0.1000000E-02 Eh/α :
          :   maximium RF displ.         1.0000000          :
          :   Hlow (freq-cutoff)         0.1000000E-01      :
          :   Hmax (freq-cutoff)         5.0000000          :
          :   S6 in model hess.         20.0000000          :
          ...................................................

generating ANC from model Hessian ...
Using Lindh-Hessian (1995)
 Shifting diagonal of input Hessian by    1.0029041539386330E-002
 Lowest  eigenvalues of input Hessian
    0.010000    0.010005    0.010009    0.010013    0.010016    0.010023
    0.010024    0.010027    0.000000    0.000000    0.000000    0.000000
    0.000000    0.000000    0.010032    0.010037    0.010069    0.010097
 Highest eigenvalues
    2.775083    2.863709    3.097893    3.169110    3.275586    3.529393


........................................................................
.............................. CYCLE    1 ..............................
........................................................................
   1   -351.4553751 -0.351455E+03  0.802E-05    0.02       0.0  T
   2   -351.4553685  0.668897E-05  0.271E-03    0.02       2.7  T
   3   -351.4553745 -0.606135E-05  0.816E-04    0.02       8.9  T
   4   -351.4553750 -0.474385E-06  0.500E-04    0.02      14.6  T
   5   -351.4553750 -0.439612E-07  0.414E-04    0.02      17.6  T
   6   -351.4553750 -0.397438E-08  0.394E-04    0.02      18.5  T
   7   -351.4553751 -0.178501E-07  0.323E-04    0.02      22.6  T
   8   -351.4553751 -0.569614E-07  0.234E-04    0.02      31.1  T
   9   -351.4553751 -0.281419E-07  0.991E-05    0.02      73.4  T
  10   -351.4553751 -0.393743E-08  0.557E-05    0.02     130.6  T
     SCC iter.                  ...        0 min,  1.152 sec
     gradient                   ...        0 min,  0.396 sec
 * total energy  :  -345.5486268 Eh     change       -0.6840708E-08 Eh
   gradient norm :     1.4874383 Eh/α   predicted     0.0000000E+00 (-100.00%)
   displ. norm   :     0.4989944 α      lambda       -0.6828238E+00
   maximum displ.:     0.2474606 α      in ANC's #559, #556, #558, ...

........................................................................
.............................. CYCLE    2 ..............................
........................................................................
   1   -351.4276621 -0.351428E+03  0.297E-01    0.02       0.0  T
   2   -350.7511332  0.676529E+00  0.103E+00    0.03       1.0  T
   3   -351.1213291 -0.370196E+00  0.651E-01    0.01       1.0  T
   4   -351.3538824 -0.232553E+00  0.407E-01    0.03       1.0  T
   5   -351.0829667  0.270916E+00  0.691E-01    0.10       1.0  T
   6   -351.3679032 -0.284936E+00  0.393E-01    0.03       1.0  T
   7   -351.3703913 -0.248808E-02  0.436E-01    0.03       1.0  T
   8   -351.4084598 -0.380685E-01  0.258E-01    0.00       1.0  T
   9   -351.3973489  0.111110E-01  0.293E-01    0.02       1.0  T
  10   -351.4338073 -0.364585E-01  0.166E-01    0.02       1.0  T
  11   -351.4206487  0.131586E-01  0.180E-01    0.00       1.0  T
  12   -351.4494497 -0.288010E-01  0.658E-02    0.01       1.0  T
  13   -351.4529779 -0.352817E-02  0.170E-02    0.02       1.0  T
  14   -351.4525591  0.418835E-03  0.240E-02    0.01       1.0  T
  15   -351.4528950 -0.335875E-03  0.132E-02    0.01       1.0  T
  16   -351.4530345 -0.139561E-03  0.685E-03    0.02       1.1  T
  17   -351.4530494 -0.148882E-04  0.643E-03    0.02       1.1  T
  18   -351.4530768 -0.273860E-04  0.215E-03    0.02       3.4  T
  19   -351.4530805 -0.368472E-05  0.951E-04    0.02       7.7  T
  20   -351.4530811 -0.580533E-06  0.227E-04    0.02      32.1  T
  21   -351.4530809  0.136931E-06  0.444E-04    0.02      16.4  T
  22   -351.4530811 -0.175731E-06  0.123E-04    0.02      59.3  T
  23   -351.4530811  0.127284E-08  0.105E-04    0.02      69.0  T
     SCC iter.                  ...        0 min,  2.659 sec
     gradient                   ...        0 min,  0.398 sec
 * total energy  :  -345.9956965 Eh     change       -0.4470697E+00 Eh
   gradient norm :     0.5686760 Eh/α   predicted    -0.4264285E+00 (  -4.62%)
   displ. norm   :     0.5083806 α      lambda       -0.2257825E+00
   maximum displ.:     0.1023416 α      in ANC's #560, #559, #556, ...

........................................................................
.............................. CYCLE    3 ..............................
........................................................................
   1   -351.5895203 -0.351590E+03  0.216E-01    0.02       0.0  T
   2   -351.0988760  0.490644E+00  0.101E+00    0.08       1.0  T
   3   -351.3758544 -0.276978E+00  0.612E-01    0.17       1.0  T
   4   -351.5475163 -0.171662E+00  0.359E-01    0.05       1.0  T
   5   -351.4807870  0.667293E-01  0.473E-01    0.07       1.0  T
   6   -351.5102782 -0.294912E-01  0.400E-01    0.02       1.0  T
   7   -351.5692787 -0.590005E-01  0.233E-01    0.03       1.0  T
   8   -351.5847248 -0.154460E-01  0.176E-01    0.01       1.0  T
   9   -351.5347601  0.499646E-01  0.281E-01    0.00       1.0  T
  10   -351.5930887 -0.583285E-01  0.117E-01    0.02       1.0  T
  11   -351.5979080 -0.481930E-02  0.908E-02    0.00       1.0  T
  12   -351.6002359 -0.232790E-02  0.642E-02    0.00       1.0  T
  13   -351.6013475 -0.111170E-02  0.494E-02    0.00       1.0  T
  14   -351.6028263 -0.147874E-02  0.147E-02    0.00       1.0  T
  15   -351.6029023 -0.759608E-04  0.920E-03    0.01       1.0  T
  16   -351.6029365 -0.342401E-04  0.598E-03    0.01       1.2  T
  17   -351.6029539 -0.173887E-04  0.164E-03    0.01       4.4  T
  18   -351.6029543 -0.386875E-06  0.177E-03    0.01       4.1  T
  19   -351.6029558 -0.154157E-05  0.542E-04    0.01      13.4  T
  20   -351.6029558 -0.381056E-08  0.472E-04    0.01      15.4  T
  21   -351.6029559 -0.100512E-06  0.219E-04    0.01      33.3  T
  22   -351.6029559 -0.329260E-07  0.683E-05    0.01     106.5  T
  23   -351.6029559 -0.264271E-08  0.279E-05    0.01     260.3  T
     SCC iter.                  ...        0 min,  2.664 sec
     gradient                   ...        0 min,  0.396 sec
 * total energy  :  -346.1434646 Eh     change       -0.1477681E+00 Eh
   gradient norm :     0.2174826 Eh/α   predicted    -0.1420684E+00 (  -3.86%)
   displ. norm   :     0.6821422 α      lambda       -0.9868762E-01
   maximum displ.:     0.2412536 α      in ANC's #159, #91, #164, ...

........................................................................
.............................. CYCLE    4 ..............................
........................................................................
   1   -351.6114428 -0.351611E+03  0.206E-01    0.02       0.0  T
   2   -351.2392838  0.372159E+00  0.882E-01    0.10       1.0  T
   3   -351.4643364 -0.225053E+00  0.583E-01    0.06       1.0  T
   4   -351.6076374 -0.143301E+00  0.206E-01    0.02       1.0  T
   5   -351.5291431  0.784943E-01  0.445E-01    0.06       1.0  T
   6   -351.5499755 -0.208323E-01  0.405E-01    0.05       1.0  T
   7   -351.6009825 -0.510070E-01  0.240E-01    0.03       1.0  T
   8   -351.6178852 -0.169027E-01  0.151E-01    0.02       1.0  T
   9   -351.6279584 -0.100732E-01  0.560E-02    0.01       1.0  T
  10   -351.6243534  0.360496E-02  0.100E-01    0.02       1.0  T
  11   -351.6275981 -0.324464E-02  0.596E-02    0.02       1.0  T
  12   -351.6284876 -0.889500E-03  0.428E-02    0.00       1.0  T
  13   -351.6291785 -0.690933E-03  0.203E-02    0.00       1.0  T
  14   -351.6293787 -0.200182E-03  0.293E-03    0.01       2.5  T
  15   -351.6293800 -0.131975E-05  0.231E-03    0.01       3.1  T
  16   -351.6293808 -0.826130E-06  0.193E-03    0.01       3.8  T
  17   -351.6293825 -0.170074E-05  0.497E-04    0.01      14.6  T
  18   -351.6293826 -0.608969E-07  0.350E-04    0.01      20.8  T
  19   -351.6293827 -0.537905E-07  0.146E-04    0.01      49.8  T
  20   -351.6293827 -0.876298E-08  0.744E-05    0.01      97.8  T
     SCC iter.                  ...        0 min,  2.316 sec
     gradient                   ...        0 min,  0.399 sec
 * total energy  :  -346.2198672 Eh     change       -0.7640265E-01 Eh
   gradient norm :     0.1273893 Eh/α   predicted    -0.7230443E-01 (  -5.36%)
   displ. norm   :     0.8258421 α      lambda       -0.7502559E-01
   maximum displ.:     0.2976772 α      in ANC's #91, #159, #89, ...

........................................................................
.............................. CYCLE    5 ..............................
........................................................................
   1   -351.6041114 -0.351604E+03  0.159E-01    0.03       0.0  T
   2   -351.3374684  0.266643E+00  0.692E-01    0.02       1.0  T
   3   -351.5463158 -0.208847E+00  0.362E-01    0.02       1.0  T
   4   -351.5059972  0.403186E-01  0.459E-01    0.04       1.0  T
   5   -351.5753180 -0.693208E-01  0.287E-01    0.03       1.0  T
   6   -351.5974572 -0.221392E-01  0.189E-01    0.02       1.0  T
   7   -351.5779942  0.194630E-01  0.280E-01    0.06       1.0  T
   8   -351.5985844 -0.205902E-01  0.183E-01    0.04       1.0  T
   9   -351.6137785 -0.151941E-01  0.556E-02    0.00       1.0  T
  10   -351.6140922 -0.313656E-03  0.473E-02    0.00       1.0  T
  11   -351.6151636 -0.107142E-02  0.316E-03    0.00       2.3  T
  12   -351.6151661 -0.252884E-05  0.211E-03    0.00       3.4  T
  13   -351.6151663 -0.231714E-06  0.208E-03    0.00       3.5  T
  14   -351.6151673 -0.985362E-06  0.148E-03    0.00       4.9  T
  15   -351.6151682 -0.835240E-06  0.652E-04    0.00      11.2  T
  16   -351.6151684 -0.193711E-06  0.144E-04    0.00      50.5  T
  17   -351.6151684 -0.372842E-08  0.117E-04    0.00      62.0  T
     SCC iter.                  ...        0 min,  1.968 sec
     gradient                   ...        0 min,  0.399 sec
 * total energy  :  -346.2852317 Eh     change       -0.6536452E-01 Eh
   gradient norm :     0.1042122 Eh/α   predicted    -0.6309710E-01 (  -3.47%)
   displ. norm   :     0.9120792 α      lambda       -0.6998868E-01
   maximum displ.:     0.3584688 α      in ANC's #91, #159, #89, ...

........................................................................
.............................. CYCLE    6 ..............................
........................................................................
   1   -351.5727521 -0.351573E+03  0.129E-01    0.02       0.0  T
   2   -351.3748680  0.197884E+00  0.642E-01    0.11       1.0  T
   3   -351.4585632 -0.836952E-01  0.486E-01    0.12       1.0  T
   4   -351.5441939 -0.856307E-01  0.262E-01    0.02       1.0  T
   5   -351.5576530 -0.134591E-01  0.212E-01    0.01       1.0  T
   6   -351.5065959  0.510571E-01  0.391E-01    0.08       1.0  T
   7   -351.5328585 -0.262627E-01  0.307E-01    0.06       1.0  T
   8   -351.5595438 -0.266853E-01  0.201E-01    0.01       1.0  T
   9   -351.5785753 -0.190315E-01  0.379E-02    0.00       1.0  T
  10   -351.5792511 -0.675812E-03  0.700E-03    0.00       1.0  T
  11   -351.5792588 -0.766192E-05  0.574E-03    0.00       1.3  T
  12   -351.5792738 -0.150243E-04  0.139E-03    0.00       5.2  T
  13   -351.5792746 -0.764659E-06  0.638E-04    0.00      11.4  T
  14   -351.5792748 -0.161433E-06  0.265E-04    0.00      27.5  T
  15   -351.5792748 -0.354096E-07  0.381E-05    0.00     190.8  T
  16   -351.5792748  0.974762E-08  0.144E-04    0.00      50.5  T
     SCC iter.                  ...        0 min,  1.860 sec
     gradient                   ...        0 min,  0.401 sec
 * total energy  :  -346.3529361 Eh     change       -0.6770442E-01 Eh
   gradient norm :     0.1129095 Eh/α   predicted    -0.6410590E-01 (  -5.32%)
   displ. norm   :     0.9328874 α      lambda       -0.7264800E-01
   maximum displ.:     0.3681725 α      in ANC's #91, #56, #100, ...

........................................................................
.............................. CYCLE    7 ..............................
........................................................................
   1   -351.5300636 -0.351530E+03  0.113E-01    0.01       0.0  T
   2   -351.3718343  0.158229E+00  0.578E-01    0.04       1.0  T
   3   -351.4857111 -0.113877E+00  0.309E-01    0.00       1.0  T
   4   -351.4228356  0.628755E-01  0.462E-01    0.03       1.0  T
   5   -351.5147196 -0.918840E-01  0.202E-01    0.01       1.0  T
   6   -351.4989111  0.158085E-01  0.274E-01    0.05       1.0  T
   7   -351.4978780  0.103315E-02  0.272E-01    0.05       1.0  T
   8   -351.5328096 -0.349317E-01  0.456E-02    0.00       1.0  T
   9   -351.5306046  0.220503E-02  0.811E-02    0.00       1.0  T
  10   -351.5336612 -0.305659E-02  0.150E-02    0.00       1.0  T
  11   -351.5337663 -0.105065E-03  0.168E-03    0.00       4.3  T
  12   -351.5337562  0.100370E-04  0.487E-03    0.00       1.5  T
  13   -351.5337655 -0.926609E-05  0.207E-03    0.00       3.5  T
  14   -351.5337674 -0.191424E-05  0.583E-04    0.00      12.5  T
  15   -351.5337676 -0.156155E-06  0.116E-04    0.00      62.8  T
  16   -351.5337676 -0.678011E-08  0.255E-05    0.00     285.0  T
     SCC iter.                  ...        0 min,  1.851 sec
     gradient                   ...        0 min,  0.397 sec
 * total energy  :  -346.4146019 Eh     change       -0.6166573E-01 Eh
   gradient norm :     0.0951911 Eh/α   predicted    -0.6793603E-01 (  10.17%)
   displ. norm   :     0.8156176 α      lambda       -0.4748917E-01
   maximum displ.:     0.2987665 α      in ANC's #91, #56, #100, ...

........................................................................
.............................. CYCLE    8 ..............................
........................................................................
   1   -351.5320508 -0.351532E+03  0.748E-02    0.01       0.0  T
   2   -351.3618183  0.170232E+00  0.589E-01    0.08       1.0  T
   3   -351.5082849 -0.146467E+00  0.227E-01    0.02       1.0  T
   4   -351.4722676  0.360173E-01  0.356E-01    0.04       1.0  T
   5   -351.5286318 -0.563642E-01  0.110E-01    0.01       1.0  T
   6   -351.5280596  0.572209E-03  0.109E-01    0.02       1.0  T
   7   -351.5276259  0.433685E-03  0.116E-01    0.01       1.0  T
   8   -351.5339469 -0.632098E-02  0.226E-02    0.00       1.0  T
   9   -351.5342074 -0.260453E-03  0.399E-03    0.00       1.8  T
  10   -351.5342146 -0.726779E-05  0.852E-04    0.00       8.5  T
  11   -351.5342120  0.262444E-05  0.245E-03    0.00       3.0  T
  12   -351.5342149 -0.286561E-05  0.402E-04    0.00      18.1  T
  13   -351.5342149  0.122554E-07  0.409E-04    0.00      17.8  T
  14   -351.5342149 -0.735598E-07  0.172E-04    0.00      42.2  T
  15   -351.5342149 -0.139875E-07  0.849E-06    0.00     856.8  T
     SCC iter.                  ...        0 min,  1.749 sec
     gradient                   ...        0 min,  0.396 sec
 * total energy  :  -346.4506156 Eh     change       -0.3601372E-01 Eh
   gradient norm :     0.0874632 Eh/α   predicted    -0.3954028E-01 (   9.79%)
   displ. norm   :     0.6988928 α      lambda       -0.3428902E-01
   maximum displ.:     0.2358314 α      in ANC's #56, #13, #91, ...

........................................................................
.............................. CYCLE    9 ..............................
........................................................................
   1   -351.5691280 -0.351569E+03  0.176E-01    0.00       0.0  T
   2   -351.3610939  0.208034E+00  0.676E-01    0.73       1.0  T
   3   -351.4491388 -0.880449E-01  0.533E-01    0.09       1.0  T
   4   -351.4844971 -0.353582E-01  0.461E-01    0.09       1.0  T
   5   -351.5624312 -0.779341E-01  0.215E-01    0.04       1.0  T
   6   -351.5516983  0.107328E-01  0.262E-01    0.00       1.0  T
   7   -351.5651917 -0.134933E-01  0.201E-01    0.04       1.0  T
   8   -351.5821616 -0.169699E-01  0.698E-02    0.00       1.0  T
   9   -351.5841384 -0.197676E-02  0.265E-02    0.01       1.0  T
  10   -351.5844347 -0.296307E-03  0.948E-03    0.00       1.0  T
  11   -351.5844629 -0.282132E-04  0.562E-03    0.00       1.3  T
  12   -351.5844780 -0.151300E-04  0.499E-04    0.00      14.6  T
  13   -351.5844781 -0.856454E-07  0.313E-04    0.00      23.2  T
  14   -351.5844778  0.331705E-06  0.887E-04    0.00       8.2  T
  15   -351.5844782 -0.367026E-06  0.170E-04    0.00      42.8  T
  16   -351.5844782 -0.975888E-09  0.164E-04    0.00      44.4  T
     SCC iter.                  ...        0 min,  1.866 sec
     gradient                   ...        0 min,  0.401 sec
 * total energy  :  -346.4779389 Eh     change       -0.2732332E-01 Eh
   gradient norm :     0.0638026 Eh/α   predicted    -0.2551890E-01 (  -6.60%)
   displ. norm   :     0.7976709 α      lambda       -0.2569640E-01
   maximum displ.:     0.3269746 α      in ANC's #13, #56, #59, ...

........................................................................
.............................. CYCLE   10 ..............................
........................................................................
   1   -351.6107662 -0.351611E+03  0.231E-01    0.00       0.0  T
   2   -351.1015486  0.509218E+00  0.904E-01    0.63       1.0  T
   3   -351.5965408 -0.494992E+00  0.314E-01    0.03       1.0  T
   4   -351.5024027  0.941381E-01  0.515E-01    0.02       1.0  T
   5   -351.5955210 -0.931184E-01  0.300E-01    0.05       1.0  T
   6   -351.6353222 -0.398012E-01  0.521E-02    0.01       1.0  T
   7   -351.6330825  0.223973E-02  0.902E-02    0.00       1.0  T
   8   -351.6365383 -0.345577E-02  0.161E-02    0.00       1.0  T
   9   -351.6366533 -0.115073E-03  0.571E-03    0.00       1.3  T
  10   -351.6365515  0.101842E-03  0.163E-02    0.00       1.0  T
  11   -351.6366645 -0.112994E-03  0.381E-03    0.00       1.9  T
  12   -351.6366684 -0.392411E-05  0.227E-03    0.00       3.2  T
  13   -351.6366686 -0.131039E-06  0.222E-03    0.00       3.3  T
  14   -351.6366706 -0.208735E-05  0.442E-04    0.00      16.5  T
  15   -351.6366707 -0.883156E-07  0.158E-04    0.00      45.9  T
  16   -351.6366707 -0.743790E-08  0.100E-04    0.00      72.7  T
     SCC iter.                  ...        0 min,  1.858 sec
     gradient                   ...        0 min,  0.404 sec
 * total energy  :  -346.4981231 Eh     change       -0.2018414E-01 Eh
   gradient norm :     0.0460466 Eh/α   predicted    -0.2102325E-01 (   4.16%)
   displ. norm   :     0.8515924 α      lambda       -0.2131017E-01
   maximum displ.:     0.3453681 α      in ANC's #13, #56, #57, ...

........................................................................
.............................. CYCLE   11 ..............................
........................................................................
   1   -351.6316132 -0.351632E+03  0.286E-01    0.00       0.0  T
   2   -350.9936077  0.638005E+00  0.101E+00    0.48       1.0  T
   3   -351.6386873 -0.645080E+00  0.296E-01    0.04       1.0  T
   4   -351.5436243  0.950630E-01  0.501E-01    0.02       1.0  T
   5   -351.6273296 -0.837053E-01  0.308E-01    0.06       1.0  T
   6   -351.6690787 -0.417491E-01  0.445E-02    0.01       1.0  T
   7   -351.6665944  0.248430E-02  0.866E-02    0.00       1.0  T
   8   -351.6697558 -0.316138E-02  0.233E-02    0.01       1.0  T
   9   -351.6699958 -0.239964E-03  0.543E-03    0.00       1.3  T
  10   -351.6699916  0.413829E-05  0.641E-03    0.00       1.1  T
  11   -351.6700100 -0.183203E-04  0.850E-04    0.00       8.6  T
  12   -351.6700102 -0.271225E-06  0.422E-04    0.00      17.2  T
  13   -351.6700103 -0.528152E-07  0.295E-04    0.00      24.7  T
  14   -351.6700103 -0.326957E-07  0.116E-04    0.00      62.9  T
  15   -351.6700103 -0.498625E-08  0.562E-05    0.00     129.4  T
     SCC iter.                  ...        0 min,  1.740 sec
     gradient                   ...        0 min,  0.401 sec
 * total energy  :  -346.5089620 Eh     change       -0.1083891E-01 Eh
   gradient norm :     0.0549220 Eh/α   predicted    -0.1838229E-01 (  69.60%)
   displ. norm   :     0.6839503 α      lambda       -0.1841927E-01
   maximum displ.:     0.3198813 α      in ANC's #13, #56, #59, ...

........................................................................
.............................. CYCLE   12 ..............................
........................................................................
   1   -351.6905515 -0.351691E+03  0.247E-01    0.00       0.0  T
   2   -351.0957649  0.594787E+00  0.961E-01    0.58       1.0  T
   3   -351.7108893 -0.615124E+00  0.137E-01    0.01       1.0  T
   4   -351.5637635  0.147126E+00  0.550E-01    0.07       1.0  T
   5   -351.6814643 -0.117701E+00  0.292E-01    0.05       1.0  T
   6   -351.7127980 -0.313337E-01  0.115E-01    0.02       1.0  T
   7   -351.7150053 -0.220735E-02  0.870E-02    0.00       1.0  T
   8   -351.7170331 -0.202780E-02  0.582E-02    0.01       1.0  T
   9   -351.7183879 -0.135479E-02  0.189E-02    0.00       1.0  T
  10   -351.7185405 -0.152624E-03  0.406E-03    0.00       1.8  T
  11   -351.7185319  0.861336E-05  0.606E-03    0.00       1.2  T
  12   -351.7185465 -0.145385E-04  0.213E-03    0.00       3.4  T
  13   -351.7185483 -0.185410E-05  0.627E-04    0.00      11.6  T
  14   -351.7185483 -0.229173E-07  0.582E-04    0.00      12.5  T
  15   -351.7185485 -0.136472E-06  0.183E-04    0.00      39.8  T
  16   -351.7185485 -0.141760E-07  0.414E-05    0.00     175.5  T
     SCC iter.                  ...        0 min,  1.865 sec
     gradient                   ...        0 min,  0.402 sec
 * total energy  :  -346.5207073 Eh     change       -0.1174534E-01 Eh
   gradient norm :     0.0495264 Eh/α   predicted    -0.1351779E-01 (  15.09%)
   displ. norm   :     0.7014916 α      lambda       -0.1131274E-01
   maximum displ.:     0.4133702 α      in ANC's #13, #56, #26, ...

........................................................................
.............................. CYCLE   13 ..............................
........................................................................
   1   -351.7465804 -0.351747E+03  0.167E-01    0.00       0.0  T
   2   -351.5291489  0.217431E+00  0.680E-01    0.70       1.0  T
   3   -351.6269914 -0.978425E-01  0.514E-01    0.02       1.0  T
   4   -351.7069690 -0.799776E-01  0.332E-01    0.05       1.0  T
   5   -351.7590682 -0.520993E-01  0.218E-02    0.00       1.0  T
   6   -351.7591718 -0.103571E-03  0.147E-02    0.00       1.0  T
   7   -351.7592551 -0.833059E-04  0.563E-03    0.00       1.3  T
   8   -351.7592565 -0.133250E-05  0.513E-03    0.00       1.4  T
   9   -351.7592585 -0.203837E-05  0.484E-03    0.00       1.5  T
  10   -351.7592696 -0.111351E-04  0.611E-04    0.00      11.9  T
  11   -351.7592694  0.236528E-06  0.924E-04    0.00       7.9  T
  12   -351.7592696 -0.202806E-06  0.700E-04    0.00      10.4  T
  13   -351.7592698 -0.176729E-06  0.311E-04    0.00      23.4  T
  14   -351.7592698 -0.360883E-07  0.171E-04    0.00      42.5  T
  15   -351.7592698 -0.782717E-08  0.108E-04    0.00      67.2  T
     SCC iter.                  ...        0 min,  1.745 sec
     gradient                   ...        0 min,  0.405 sec
 * total energy  :  -346.5282562 Eh     change       -0.7548887E-02 Eh
   gradient norm :     0.0371608 Eh/α   predicted    -0.8439810E-02 (  11.80%)
   displ. norm   :     0.7667850 α      lambda       -0.1110356E-01
   maximum displ.:     0.4254760 α      in ANC's #13, #26, #47, ...

........................................................................
.............................. CYCLE   14 ..............................
........................................................................
   1   -351.7722229 -0.351772E+03  0.200E-01    0.00       0.0  T
   2   -351.3891035  0.383119E+00  0.815E-01    0.67       1.0  T
   3   -351.6938209 -0.304717E+00  0.439E-01    0.02       1.0  T
   4   -351.7611312 -0.673103E-01  0.245E-01    0.01       1.0  T
   5   -351.7773869 -0.162557E-01  0.169E-01    0.03       1.0  T
   6   -351.7898607 -0.124739E-01  0.315E-02    0.00       1.0  T
   7   -351.7899988 -0.138066E-03  0.266E-02    0.00       1.0  T
   8   -351.7901389 -0.140051E-03  0.211E-02    0.00       1.0  T
   9   -351.7903298 -0.190960E-03  0.459E-03    0.00       1.6  T
  10   -351.7903381 -0.831791E-05  0.127E-03    0.00       5.7  T
  11   -351.7903307  0.740409E-05  0.420E-03    0.00       1.7  T
  12   -351.7903377 -0.696268E-05  0.156E-03    0.00       4.7  T
  13   -351.7903388 -0.108134E-05  0.248E-04    0.00      29.4  T
  14   -351.7903388 -0.202155E-07  0.136E-04    0.00      53.3  T
  15   -351.7903388 -0.783774E-08  0.436E-05    0.00     166.7  T
     SCC iter.                  ...        0 min,  1.745 sec
     gradient                   ...        0 min,  0.406 sec
 * total energy  :  -346.5349168 Eh     change       -0.6660589E-02 Eh
   gradient norm :     0.0553890 Eh/α   predicted    -0.8816008E-02 (  32.36%)
   displ. norm   :     0.6870622 α      lambda       -0.1000413E-01
   maximum displ.:     0.4079817 α      in ANC's #13, #26, #22, ...

........................................................................
.............................. CYCLE   15 ..............................
........................................................................
   1   -351.8031422 -0.351803E+03  0.156E-01    0.00       0.0  T
   2   -351.5968858  0.206256E+00  0.664E-01    0.68       1.0  T
   3   -351.7258135 -0.128928E+00  0.424E-01    0.03       1.0  T
   4   -351.7661167 -0.403032E-01  0.315E-01    0.03       1.0  T
   5   -351.8101066 -0.439899E-01  0.903E-02    0.00       1.0  T
   6   -351.8131488 -0.304227E-02  0.381E-02    0.00       1.0  T
   7   -351.8130686  0.802487E-04  0.409E-02    0.00       1.0  T
   8   -351.8138563 -0.787677E-03  0.242E-03    0.00       3.0  T
   9   -351.8138412  0.150235E-04  0.617E-03    0.00       1.2  T
  10   -351.8138591 -0.178230E-04  0.338E-04    0.00      21.6  T
  11   -351.8138591  0.231978E-09  0.340E-04    0.00      21.4  T
  12   -351.8138590  0.433206E-07  0.456E-04    0.00      15.9  T
  13   -351.8138591 -0.825443E-07  0.166E-04    0.00      43.8  T
  14   -351.8138591 -0.112857E-07  0.540E-05    0.00     134.6  T
     SCC iter.                  ...        0 min,  1.629 sec
     gradient                   ...        0 min,  0.404 sec
 * total energy  :  -346.5411553 Eh     change       -0.6238557E-02 Eh
   gradient norm :     0.0442456 Eh/α   predicted    -0.7363335E-02 (  18.03%)
   displ. norm   :     0.7026708 α      lambda       -0.8125371E-02
   maximum displ.:     0.4923011 α      in ANC's #13, #26, #21, ...

........................................................................
.............................. CYCLE   16 ..............................
........................................................................
   1   -351.8417137 -0.351842E+03  0.338E-02    0.00       0.0  T
   2   -351.7028281  0.138886E+00  0.523E-01    0.03       1.0  T
   3   -351.8372121 -0.134384E+00  0.980E-02    0.01       1.0  T
   4   -351.8199732  0.172389E-01  0.214E-01    0.01       1.0  T
   5   -351.8415772 -0.216040E-01  0.347E-02    0.00       1.0  T
   6   -351.8420473 -0.470028E-03  0.147E-02    0.00       1.0  T
   7   -351.8419974  0.499028E-04  0.172E-02    0.00       1.0  T
   8   -351.8421310 -0.133679E-03  0.497E-03    0.00       1.5  T
   9   -351.8421400 -0.892436E-05  0.287E-03    0.00       2.5  T
  10   -351.8421423 -0.228622E-05  0.190E-03    0.00       3.8  T
  11   -351.8421438 -0.151171E-05  0.749E-04    0.00       9.7  T
  12   -351.8421440 -0.243953E-06  0.236E-04    0.00      30.9  T
  13   -351.8421440 -0.204168E-07  0.124E-04    0.00      58.6  T
  14   -351.8421440 -0.317516E-08  0.909E-05    0.00      80.0  T
     SCC iter.                  ...        0 min,  1.625 sec
     gradient                   ...        0 min,  0.402 sec
 * total energy  :  -346.5461525 Eh     change       -0.4997192E-02 Eh
   gradient norm :     0.0480799 Eh/α   predicted    -0.6068624E-02 (  21.44%)
   displ. norm   :     0.6953016 α      lambda       -0.7440984E-02
   maximum displ.:     0.4534004 α      in ANC's #13, #26, #21, ...

........................................................................
.............................. CYCLE   17 ..............................
........................................................................
   1   -351.8628447 -0.351863E+03  0.642E-02    0.00       0.0  T
   2   -351.6788102  0.184034E+00  0.610E-01    0.16       1.0  T
   3   -351.8468726 -0.168062E+00  0.187E-01    0.03       1.0  T
   4   -351.8614306 -0.145580E-01  0.804E-02    0.00       1.0  T
   5   -351.8640552 -0.262460E-02  0.359E-02    0.00       1.0  T
   6   -351.8634603  0.594850E-03  0.493E-02    0.00       1.0  T
   7   -351.8642579 -0.797625E-03  0.286E-02    0.00       1.0  T
   8   -351.8644625 -0.204508E-03  0.200E-02    0.00       1.0  T
   9   -351.8646031 -0.140624E-03  0.105E-02    0.00       1.0  T
  10   -351.8646547 -0.516727E-04  0.210E-03    0.00       3.5  T
  11   -351.8646565 -0.172672E-05  0.921E-04    0.00       7.9  T
  12   -351.8646569 -0.409866E-06  0.139E-04    0.00      52.4  T
  13   -351.8646569  0.459636E-09  0.147E-04    0.00      49.4  T
     SCC iter.                  ...        0 min,  1.517 sec
     gradient                   ...        0 min,  0.404 sec
 * total energy  :  -346.5506044 Eh     change       -0.4451834E-02 Eh
   gradient norm :     0.0387036 Eh/α   predicted    -0.5519147E-02 (  23.97%)
   displ. norm   :     0.6842923 α      lambda       -0.7077612E-02
   maximum displ.:     0.4555867 α      in ANC's #13, #22, #26, ...

........................................................................
.............................. CYCLE   18 ..............................
........................................................................
   1   -351.8865026 -0.351887E+03  0.359E-02    0.00       0.0  T
   2   -351.7410152  0.145487E+00  0.542E-01    0.11       1.0  T
   3   -351.8847735 -0.143758E+00  0.672E-02    0.01       1.0  T
   4   -351.8845242  0.249304E-03  0.719E-02    0.00       1.0  T
   5   -351.8870632 -0.253902E-02  0.535E-03    0.00       1.4  T
   6   -351.8870315  0.317274E-04  0.927E-03    0.00       1.0  T
   7   -351.8870326 -0.114370E-05  0.912E-03    0.00       1.0  T
   8   -351.8870705 -0.379351E-04  0.259E-03    0.00       2.8  T
   9   -351.8870721 -0.160049E-05  0.193E-03    0.00       3.8  T
  10   -351.8870733 -0.118451E-05  0.114E-03    0.00       6.4  T
  11   -351.8870739 -0.596294E-06  0.255E-04    0.00      28.6  T
  12   -351.8870739 -0.975740E-08  0.210E-04    0.00      34.7  T
  13   -351.8870740 -0.186929E-07  0.868E-05    0.00      83.8  T
  14   -351.8870740 -0.222155E-08  0.523E-05    0.00     139.2  T
     SCC iter.                  ...        0 min,  1.632 sec
     gradient                   ...        0 min,  0.401 sec
 * total energy  :  -346.5546658 Eh     change       -0.4061471E-02 Eh
   gradient norm :     0.0438138 Eh/α   predicted    -0.5195877E-02 (  27.93%)
   displ. norm   :     0.6724175 α      lambda       -0.7432929E-02
   maximum displ.:     0.4760858 α      in ANC's #13, #26, #22, ...

........................................................................
.............................. CYCLE   19 ..............................
........................................................................
   1   -351.9075471 -0.351908E+03  0.482E-02    0.00       0.0  T
   2   -351.7531467  0.154400E+00  0.557E-01    0.20       1.0  T
   3   -351.9080166 -0.154870E+00  0.371E-02    0.00       1.0  T
   4   -351.8867734  0.212432E-01  0.209E-01    0.03       1.0  T
   5   -351.9079958 -0.212224E-01  0.331E-02    0.00       1.0  T
   6   -351.9076114  0.384426E-03  0.429E-02    0.00       1.0  T
   7   -351.9083780 -0.766644E-03  0.174E-02    0.00       1.0  T
   8   -351.9084374 -0.593956E-04  0.136E-02    0.00       1.0  T
   9   -351.9085205 -0.831036E-04  0.426E-03    0.00       1.7  T
  10   -351.9085288 -0.826933E-05  0.128E-03    0.00       5.7  T
  11   -351.9085294 -0.576209E-06  0.705E-04    0.00      10.3  T
  12   -351.9085296 -0.221536E-06  0.242E-04    0.00      30.0  T
  13   -351.9085296 -0.246136E-07  0.905E-05    0.00      80.4  T
  14   -351.9085296 -0.373416E-08  0.180E-05    0.00     404.4  T
     SCC iter.                  ...        0 min,  1.626 sec
     gradient                   ...        0 min,  0.407 sec
 * total energy  :  -346.5579024 Eh     change       -0.3236584E-02 Eh
   gradient norm :     0.0493266 Eh/α   predicted    -0.5396854E-02 (  66.75%)
   displ. norm   :     0.6070395 α      lambda       -0.6253217E-02
   maximum displ.:     0.4342342 α      in ANC's #13, #26, #22, ...

........................................................................
.............................. CYCLE   20 ..............................
........................................................................
   1   -351.9166302 -0.351917E+03  0.810E-02    0.01       0.0  T
   2   -351.7579492  0.158681E+00  0.571E-01    0.04       1.0  T
   3   -351.8672136 -0.109264E+00  0.321E-01    0.05       1.0  T
   4   -351.9180104 -0.507968E-01  0.584E-02    0.01       1.0  T
   5   -351.9193808 -0.137042E-02  0.193E-02    0.00       1.0  T
   6   -351.9182474  0.113336E-02  0.529E-02    0.01       1.0  T
   7   -351.9193197 -0.107225E-02  0.223E-02    0.00       1.0  T
   8   -351.9192729  0.468198E-04  0.246E-02    0.00       1.0  T
   9   -351.9195494 -0.276535E-03  0.386E-03    0.00       1.9  T
  10   -351.9195555 -0.606331E-05  0.140E-03    0.00       5.2  T
  11   -351.9195564 -0.905552E-06  0.958E-05    0.00      76.0  T
  12   -351.9195563  0.484634E-07  0.338E-04    0.00      21.6  T
  13   -351.9195564 -0.469681E-07  0.107E-04    0.00      67.7  T
     SCC iter.                  ...        0 min,  1.504 sec
     gradient                   ...        0 min,  0.405 sec
 * total energy  :  -346.5626108 Eh     change       -0.4708390E-02 Eh
   gradient norm :     0.0167381 Eh/α   predicted    -0.4278761E-02 (  -9.12%)
   displ. norm   :     0.7613014 α      lambda       -0.5229766E-02
   maximum displ.:     0.5253637 α      in ANC's #13, #21, #26, ...
 * RMSD in coord.:     0.7331267 α      energy gain  -0.1013984E+01 Eh

generating ANC from model Hessian ...
Using Lindh-Hessian (1995)
 Shifting diagonal of input Hessian by    1.0020973040080400E-002
 Lowest  eigenvalues of input Hessian
    0.010000    0.010004    0.010006    0.010008    0.010014    0.010017
    0.000000    0.000000    0.000000    0.000000    0.000000    0.000000
    0.010023    0.010030    0.010032    0.010054    0.010142    0.010155
 Highest eigenvalues
    2.381871    2.402048    2.693181    2.704716    2.899488    2.908658


........................................................................
.............................. CYCLE   21 ..............................
........................................................................
   1   -351.9266738 -0.351927E+03  0.107E-01    0.01       0.0  T
   2   -351.7435127  0.183161E+00  0.612E-01    0.07       1.0  T
   3   -351.8190976 -0.755849E-01  0.472E-01    0.11       1.0  T
   4   -351.9269278 -0.107830E+00  0.105E-01    0.01       1.0  T
   5   -351.9315847 -0.465687E-02  0.212E-02    0.00       1.0  T
   6   -351.9314191  0.165530E-03  0.287E-02    0.00       1.0  T
   7   -351.9307217  0.697445E-03  0.483E-02    0.00       1.0  T
   8   -351.9317943 -0.107259E-02  0.374E-03    0.00       1.9  T
   9   -351.9318007 -0.640601E-05  0.788E-04    0.00       9.2  T
  10   -351.9318002  0.530141E-06  0.137E-03    0.00       5.3  T
  11   -351.9318010 -0.814634E-06  0.314E-04    0.00      23.2  T
  12   -351.9318010 -0.374436E-07  0.114E-04    0.00      64.1  T
  13   -351.9318010  0.168245E-08  0.128E-04    0.00      56.8  T
     SCC iter.                  ...        0 min,  1.508 sec
     gradient                   ...        0 min,  0.405 sec
 * total energy  :  -346.5649549 Eh     change       -0.2344071E-02 Eh
   gradient norm :     0.0323035 Eh/α   predicted     0.0000000E+00 (-100.00%)
   displ. norm   :     0.4016931 α      lambda       -0.3829455E-02
   maximum displ.:     0.2566912 α      in ANC's #32, #14, #38, ...

........................................................................
.............................. CYCLE   22 ..............................
........................................................................
   1   -351.9368505 -0.351937E+03  0.114E-02    0.00       0.0  T
   2   -351.9063108  0.305398E-01  0.250E-01    0.03       1.0  T
   3   -351.9354130 -0.291023E-01  0.548E-02    0.00       1.0  T
   4   -351.9319531  0.345993E-02  0.101E-01    0.01       1.0  T
   5   -351.9365670 -0.461386E-02  0.267E-02    0.00       1.0  T
   6   -351.9368439 -0.276922E-03  0.104E-02    0.00       1.0  T
   7   -351.9368864 -0.425118E-04  0.405E-03    0.00       1.8  T
   8   -351.9368937 -0.724262E-05  0.617E-04    0.00      11.8  T
   9   -351.9368938 -0.165329E-06  0.193E-04    0.00      37.7  T
  10   -351.9368938 -0.130781E-07  0.126E-04    0.00      57.5  T
     SCC iter.                  ...        0 min,  1.160 sec
     gradient                   ...        0 min,  0.408 sec
 * total energy  :  -346.5668592 Eh     change       -0.1904311E-02 Eh
   gradient norm :     0.0197800 Eh/α   predicted    -0.2224104E-02 (  16.79%)
   displ. norm   :     0.6092387 α      lambda       -0.5885627E-02
   maximum displ.:     0.3863414 α      in ANC's #32, #14, #38, ...

........................................................................
.............................. CYCLE   23 ..............................
........................................................................
   1   -351.9486463 -0.351949E+03  0.231E-02    0.00       0.0  T
   2   -351.8537821  0.948642E-01  0.441E-01    0.06       1.0  T
   3   -351.9457322 -0.919500E-01  0.795E-02    0.00       1.0  T
   4   -351.9394965  0.623571E-02  0.139E-01    0.01       1.0  T
   5   -351.9482284 -0.873191E-02  0.367E-02    0.00       1.0  T
   6   -351.9488094 -0.581071E-03  0.885E-03    0.00       1.0  T
   7   -351.9488389 -0.294920E-04  0.315E-03    0.00       2.3  T
   8   -351.9488409 -0.196237E-05  0.226E-03    0.00       3.2  T
   9   -351.9488430 -0.209279E-05  0.937E-04    0.00       7.8  T
  10   -351.9488434 -0.415822E-06  0.252E-04    0.00      28.8  T
  11   -351.9488433  0.844493E-07  0.496E-04    0.00      14.7  T
  12   -351.9488434 -0.724669E-07  0.294E-04    0.00      24.7  T
  13   -351.9488434 -0.365620E-07  0.802E-05    0.00      90.7  T
  14   -351.9488434 -0.281983E-08  0.293E-05    0.00     248.2  T
     SCC iter.                  ...        0 min,  1.621 sec
     gradient                   ...        0 min,  0.405 sec
 * total energy  :  -346.5692446 Eh     change       -0.2385371E-02 Eh
   gradient norm :     0.0408356 Eh/α   predicted    -0.4035110E-02 (  69.16%)
   displ. norm   :     0.4395062 α      lambda       -0.3616657E-02
   maximum displ.:     0.2846882 α      in ANC's #32, #14, #21, ...

........................................................................
.............................. CYCLE   24 ..............................
........................................................................
   1   -351.9545986 -0.351955E+03  0.333E-02    0.00       0.0  T
   2   -351.8320613  0.122537E+00  0.507E-01    0.01       1.0  T
   3   -351.9544265 -0.122365E+00  0.369E-02    0.00       1.0  T
   4   -351.9463281  0.809835E-02  0.131E-01    0.01       1.0  T
   5   -351.9550429 -0.871473E-02  0.807E-03    0.00       1.0  T
   6   -351.9550731 -0.302845E-04  0.147E-03    0.00       5.0  T
   7   -351.9550497  0.234643E-04  0.733E-03    0.00       1.0  T
   8   -351.9550625 -0.127931E-04  0.493E-03    0.00       1.5  T
   9   -351.9550694 -0.689434E-05  0.316E-03    0.00       2.3  T
  10   -351.9550715 -0.212110E-05  0.228E-03    0.00       3.2  T
  11   -351.9550733 -0.184780E-05  0.108E-03    0.00       6.7  T
  12   -351.9550739 -0.526458E-06  0.157E-04    0.00      46.3  T
  13   -351.9550739 -0.443674E-08  0.121E-04    0.00      60.1  T
     SCC iter.                  ...        0 min,  1.502 sec
     gradient                   ...        0 min,  0.408 sec
 * total energy  :  -346.5719424 Eh     change       -0.2697874E-02 Eh
   gradient norm :     0.0213602 Eh/α   predicted    -0.2157641E-02 ( -20.02%)
   displ. norm   :     0.6333502 α      lambda       -0.4348681E-02
   maximum displ.:     0.3979682 α      in ANC's #32, #14, #21, ...

........................................................................
.............................. CYCLE   25 ..............................
........................................................................
   1   -351.9568165 -0.351957E+03  0.660E-02    0.01       0.0  T
   2   -351.7994793  0.157337E+00  0.573E-01    0.05       1.0  T
   3   -351.9259936 -0.126514E+00  0.254E-01    0.04       1.0  T
   4   -351.9582069 -0.322133E-01  0.336E-02    0.01       1.0  T
   5   -351.9586085 -0.401575E-03  0.165E-02    0.00       1.0  T
   6   -351.9581949  0.413595E-03  0.346E-02    0.00       1.0  T
   7   -351.9585665 -0.371599E-03  0.194E-02    0.00       1.0  T
   8   -351.9584597  0.106815E-03  0.247E-02    0.00       1.0  T
   9   -351.9587332 -0.273519E-03  0.379E-03    0.00       1.9  T
  10   -351.9587398 -0.654290E-05  0.483E-04    0.00      15.1  T
  11   -351.9587398 -0.562805E-07  0.356E-04    0.00      20.4  T
  12   -351.9587398 -0.138766E-08  0.350E-04    0.00      20.8  T
  13   -351.9587399 -0.330176E-07  0.221E-04    0.00      32.9  T
  14   -351.9587399 -0.219860E-07  0.157E-05    0.00     463.3  T
  15   -351.9587399 -0.107832E-09  0.191E-06    0.00    3818.2  T
     SCC iter.                  ...        0 min,  1.740 sec
     gradient                   ...        0 min,  0.404 sec
 * total energy  :  -346.5737041 Eh     change       -0.1761625E-02 Eh
   gradient norm :     0.0329621 Eh/α   predicted    -0.3046542E-02 (  72.94%)
   displ. norm   :     0.5452469 α      lambda       -0.3723594E-02
   maximum displ.:     0.3468380 α      in ANC's #32, #14, #21, ...

........................................................................
.............................. CYCLE   26 ..............................
........................................................................
   1   -351.9666984 -0.351967E+03  0.447E-02    0.01       0.0  T
   2   -351.8241789  0.142520E+00  0.547E-01    0.03       1.0  T
   3   -351.9610900 -0.136911E+00  0.113E-01    0.01       1.0  T
   4   -351.9669950 -0.590497E-02  0.340E-02    0.00       1.0  T
   5   -351.9674651 -0.470120E-03  0.152E-02    0.00       1.0  T
   6   -351.9675390 -0.739181E-04  0.897E-03    0.00       1.0  T
   7   -351.9674958  0.432005E-04  0.130E-02    0.00       1.0  T
   8   -351.9675628 -0.669308E-04  0.492E-03    0.00       1.5  T
   9   -351.9675642 -0.137823E-05  0.457E-03    0.00       1.6  T
  10   -351.9675730 -0.888270E-05  0.118E-03    0.00       6.2  T
  11   -351.9675736 -0.590798E-06  0.310E-04    0.00      23.5  T
  12   -351.9675736 -0.157755E-07  0.246E-04    0.00      29.5  T
  13   -351.9675737 -0.230788E-07  0.962E-05    0.00      75.6  T
  14   -351.9675737 -0.417458E-08  0.302E-06    0.00    2409.8  T
     SCC iter.                  ...        0 min,  1.629 sec
     gradient                   ...        0 min,  0.405 sec
 * total energy  :  -346.5763673 Eh     change       -0.2663200E-02 Eh
   gradient norm :     0.0248191 Eh/α   predicted    -0.2415300E-02 (  -9.31%)
   displ. norm   :     0.6563673 α      lambda       -0.3121009E-02
   maximum displ.:     0.4232071 α      in ANC's #32, #14, #21, ...

........................................................................
.............................. CYCLE   27 ..............................
........................................................................
   1   -351.9763499 -0.351976E+03  0.391E-02    0.00       0.0  T
   2   -351.8383642  0.137986E+00  0.539E-01    0.04       1.0  T
   3   -351.9724303 -0.134066E+00  0.951E-02    0.01       1.0  T
   4   -351.9759610 -0.353069E-02  0.464E-02    0.00       1.0  T
   5   -351.9769450 -0.983981E-03  0.117E-02    0.00       1.0  T
   6   -351.9770081 -0.631727E-04  0.141E-03    0.00       5.2  T
   7   -351.9769364  0.717561E-04  0.126E-02    0.00       1.0  T
   8   -351.9769898 -0.534732E-04  0.634E-03    0.00       1.1  T
   9   -351.9769959 -0.609055E-05  0.528E-03    0.00       1.4  T
  10   -351.9770070 -0.111135E-04  0.183E-03    0.00       4.0  T
  11   -351.9770085 -0.141130E-05  0.510E-04    0.00      14.3  T
  12   -351.9770085 -0.766343E-07  0.299E-04    0.00      24.3  T
  13   -351.9770086 -0.295175E-07  0.153E-04    0.00      47.4  T
  14   -351.9770086 -0.100239E-07  0.352E-05    0.00     206.8  T
     SCC iter.                  ...        0 min,  1.625 sec
     gradient                   ...        0 min,  0.405 sec
 * total energy  :  -346.5784356 Eh     change       -0.2068367E-02 Eh
   gradient norm :     0.0119107 Eh/α   predicted    -0.2232798E-02 (   7.95%)
   displ. norm   :     0.7027137 α      lambda       -0.3109127E-02
   maximum displ.:     0.4307299 α      in ANC's #32, #14, #21, ...

........................................................................
.............................. CYCLE   28 ..............................
........................................................................
   1   -351.9866029 -0.351987E+03  0.379E-02    0.00       0.0  T
   2   -351.8484686  0.138134E+00  0.540E-01    0.04       1.0  T
   3   -351.9829001 -0.134432E+00  0.924E-02    0.01       1.0  T
   4   -351.9864393 -0.353916E-02  0.401E-02    0.00       1.0  T
   5   -351.9871734 -0.734106E-03  0.109E-02    0.00       1.0  T
   6   -351.9872275 -0.541406E-04  0.160E-03    0.00       4.6  T
   7   -351.9871940  0.335813E-04  0.875E-03    0.00       1.0  T
   8   -351.9872177 -0.237005E-04  0.488E-03    0.00       1.5  T
   9   -351.9872199 -0.222449E-05  0.440E-03    0.00       1.7  T
  10   -351.9872278 -0.787173E-05  0.143E-03    0.00       5.1  T
  11   -351.9872286 -0.843293E-06  0.421E-04    0.00      17.3  T
  12   -351.9872287 -0.588415E-07  0.216E-04    0.00      33.6  T
  13   -351.9872287 -0.175083E-07  0.871E-05    0.00      83.5  T
  14   -351.9872287 -0.314714E-08  0.235E-05    0.00     309.0  T
     SCC iter.                  ...        0 min,  1.624 sec
     gradient                   ...        0 min,  0.410 sec
 * total energy  :  -346.5798579 Eh     change       -0.1422278E-02 Eh
   gradient norm :     0.0240807 Eh/α   predicted    -0.2322224E-02 (  63.27%)
   displ. norm   :     0.5893785 α      lambda       -0.3346469E-02
   maximum displ.:     0.3584264 α      in ANC's #32, #14, #21, ...

........................................................................
.............................. CYCLE   29 ..............................
........................................................................
   1   -351.9997749 -0.352000E+03  0.306E-02    0.00       0.0  T
   2   -351.8762296  0.123545E+00  0.513E-01    0.02       1.0  T
   3   -351.9992085 -0.122979E+00  0.440E-02    0.00       1.0  T
   4   -351.9986291  0.579311E-03  0.557E-02    0.00       1.0  T
   5   -352.0001723 -0.154315E-02  0.567E-03    0.00       1.3  T
   6   -352.0001828 -0.105317E-04  0.316E-03    0.00       2.3  T
   7   -352.0001745  0.833264E-05  0.525E-03    0.00       1.4  T
   8   -352.0001856 -0.110674E-04  0.179E-03    0.00       4.1  T
   9   -352.0001856 -0.268846E-07  0.184E-03    0.00       4.0  T
  10   -352.0001867 -0.107711E-05  0.997E-04    0.00       7.3  T
  11   -352.0001871 -0.433227E-06  0.204E-04    0.00      35.7  T
  12   -352.0001871 -0.175358E-07  0.527E-05    0.00     138.0  T
  13   -352.0001871  0.197053E-08  0.844E-05    0.00      86.2  T
     SCC iter.                  ...        0 min,  1.505 sec
     gradient                   ...        0 min,  0.407 sec
 * total energy  :  -346.5820284 Eh     change       -0.2170538E-02 Eh
   gradient norm :     0.0127843 Eh/α   predicted    -0.2254465E-02 (   3.87%)
   displ. norm   :     0.6532558 α      lambda       -0.2988112E-02
   maximum displ.:     0.3851980 α      in ANC's #32, #14, #21, ...

........................................................................
.............................. CYCLE   30 ..............................
........................................................................
   1   -352.0060057 -0.352006E+03  0.206E-02    0.00       0.0  T
   2   -351.9133599  0.926458E-01  0.446E-01    0.00       1.0  T
   3   -352.0061746 -0.928147E-01  0.727E-03    0.00       1.0  T
   4   -352.0028271  0.334754E-02  0.814E-02    0.01       1.0  T
   5   -352.0061865 -0.335937E-02  0.447E-03    0.00       1.6  T
   6   -352.0061912 -0.469599E-05  0.310E-03    0.00       2.3  T
   7   -352.0061949 -0.373412E-05  0.120E-03    0.00       6.1  T
   8   -352.0061954 -0.501584E-06  0.585E-04    0.00      12.4  T
   9   -352.0061956 -0.145852E-06  0.184E-04    0.00      39.5  T
  10   -352.0061956  0.477996E-09  0.189E-04    0.00      38.6  T
     SCC iter.                  ...        0 min,  1.163 sec
     gradient                   ...        0 min,  0.411 sec
 * total energy  :  -346.5826370 Eh     change       -0.6085240E-03 Eh
   gradient norm :     0.0208437 Eh/α   predicted    -0.2131640E-02 ( 250.30%)
   displ. norm   :     0.4948411 α      lambda       -0.3003086E-02
   maximum displ.:     0.2890339 α      in ANC's #14, #32, #21, ...

........................................................................
.............................. CYCLE   31 ..............................
........................................................................
   1   -352.0181848 -0.352018E+03  0.111E-02    0.00       0.0  T
   2   -351.9807235  0.374613E-01  0.284E-01    0.01       1.0  T
   3   -352.0180454 -0.373219E-01  0.202E-02    0.00       1.0  T
   4   -352.0147227  0.332267E-02  0.834E-02    0.01       1.0  T
   5   -352.0182074 -0.348469E-02  0.730E-03    0.00       1.0  T
   6   -352.0182275 -0.200932E-04  0.266E-03    0.00       2.7  T
   7   -352.0182304 -0.291921E-05  0.621E-04    0.00      11.7  T
   8   -352.0182305 -0.141729E-06  0.393E-04    0.00      18.5  T
   9   -352.0182306 -0.704881E-07  0.838E-05    0.00      86.8  T
  10   -352.0182306 -0.730495E-09  0.742E-05    0.00      98.0  T
     SCC iter.                  ...        0 min,  1.162 sec
     gradient                   ...        0 min,  0.408 sec
 * total energy  :  -346.5846962 Eh     change       -0.2059234E-02 Eh
   gradient norm :     0.0091761 Eh/α   predicted    -0.1869208E-02 (  -9.23%)
   displ. norm   :     0.6970619 α      lambda       -0.1761985E-02
   maximum displ.:     0.4327734 α      in ANC's #14, #32, #21, ...

........................................................................
.............................. CYCLE   32 ..............................
........................................................................
   1   -352.0292282 -0.352029E+03  0.114E-02    0.00       0.0  T
   2   -351.9869618  0.422664E-01  0.302E-01    0.00       1.0  T
   3   -352.0291946 -0.422328E-01  0.140E-02    0.00       1.0  T
   4   -352.0281742  0.102046E-02  0.469E-02    0.00       1.0  T
   5   -352.0292470 -0.107284E-02  0.864E-03    0.00       1.0  T
   6   -352.0292738 -0.267911E-04  0.417E-03    0.00       1.7  T
   7   -352.0292815 -0.768899E-05  0.680E-04    0.00      10.7  T
   8   -352.0292817 -0.160955E-06  0.239E-04    0.00      30.4  T
   9   -352.0292817 -0.245014E-07  0.787E-05    0.00      92.4  T
  10   -352.0292817 -0.154131E-08  0.648E-05    0.00     112.2  T
     SCC iter.                  ...        0 min,  1.164 sec
     gradient                   ...        0 min,  0.410 sec
 * total energy  :  -346.5859715 Eh     change       -0.1275255E-02 Eh
   gradient norm :     0.0096526 Eh/α   predicted    -0.1309064E-02 (   2.65%)
   displ. norm   :     0.7094659 α      lambda       -0.1538999E-02
   maximum displ.:     0.4467199 α      in ANC's #14, #32, #21, ...

........................................................................
.............................. CYCLE   33 ..............................
........................................................................
   1   -352.0418069 -0.352042E+03  0.725E-03    0.00       0.0  T
   2   -352.0233209  0.184860E-01  0.199E-01    0.01       1.0  T
   3   -352.0417824 -0.184615E-01  0.965E-03    0.00       1.0  T
   4   -352.0398618  0.192058E-02  0.627E-02    0.00       1.0  T
   5   -352.0418209 -0.195909E-02  0.384E-03    0.00       1.9  T
   6   -352.0418219 -0.946896E-06  0.345E-03    0.00       2.1  T
   7   -352.0418272 -0.535118E-05  0.390E-04    0.00      18.7  T
   8   -352.0418273 -0.624505E-07  0.798E-05    0.00      91.2  T
   9   -352.0418273 -0.160713E-08  0.501E-05    0.00     145.1  T
     SCC iter.                  ...        0 min,  1.047 sec
     gradient                   ...        0 min,  0.413 sec
 * total energy  :  -346.5872448 Eh     change       -0.1273352E-02 Eh
   gradient norm :     0.0075986 Eh/α   predicted    -0.1156827E-02 (  -9.15%)
   displ. norm   :     0.6960047 α      lambda       -0.1191890E-02
   maximum displ.:     0.4584957 α      in ANC's #14, #32, #21, ...

........................................................................
.............................. CYCLE   34 ..............................
........................................................................
   1   -352.0541956 -0.352054E+03  0.498E-03    0.00       0.0  T
   2   -352.0447857  0.940992E-02  0.139E-01    0.02       1.0  T
   3   -352.0541787 -0.939302E-02  0.747E-03    0.00       1.0  T
   4   -352.0535149  0.663813E-03  0.378E-02    0.00       1.0  T
   5   -352.0542029 -0.688056E-03  0.211E-03    0.00       3.4  T
   6   -352.0542024  0.509288E-06  0.231E-03    0.00       3.1  T
   7   -352.0542048 -0.236970E-05  0.370E-04    0.00      19.7  T
   8   -352.0542049 -0.770788E-07  0.640E-05    0.00     113.7  T
   9   -352.0542049 -0.109173E-08  0.374E-05    0.00     194.5  T
     SCC iter.                  ...        0 min,  1.047 sec
     gradient                   ...        0 min,  0.413 sec
 * total energy  :  -346.5882958 Eh     change       -0.1051014E-02 Eh
   gradient norm :     0.0059103 Eh/α   predicted    -0.8846397E-03 ( -15.83%)
   displ. norm   :     0.6530669 α      lambda       -0.9771239E-03
   maximum displ.:     0.4486653 α      in ANC's #14, #32, #21, ...

........................................................................
.............................. CYCLE   35 ..............................
........................................................................
   1   -352.0642192 -0.352064E+03  0.326E-03    0.00       0.0  T
   2   -352.0615453  0.267396E-02  0.751E-02    0.01       1.0  T
   3   -352.0642160 -0.267075E-02  0.377E-03    0.00       1.9  T
   4   -352.0636250  0.591000E-03  0.347E-02    0.00       1.0  T
   5   -352.0642212 -0.596247E-03  0.165E-03    0.00       4.4  T
   6   -352.0642200  0.123524E-05  0.226E-03    0.00       3.2  T
   7   -352.0642223 -0.233146E-05  0.371E-04    0.00      19.6  T
   8   -352.0642224 -0.643796E-07  0.662E-05    0.00     109.9  T
   9   -352.0642224 -0.163777E-08  0.280E-05    0.00     259.6  T
     SCC iter.                  ...        0 min,  1.045 sec
     gradient                   ...        0 min,  0.411 sec
 * total energy  :  -346.5891581 Eh     change       -0.8622327E-03 Eh
   gradient norm :     0.0039387 Eh/α   predicted    -0.6969342E-03 ( -19.17%)
   displ. norm   :     0.6062082 α      lambda       -0.7891123E-03
   maximum displ.:     0.4318405 α      in ANC's #14, #32, #21, ...

........................................................................
.............................. CYCLE   36 ..............................
........................................................................
   1   -352.0712409 -0.352071E+03  0.584E-03    0.00       0.0  T
   2   -352.0568777  0.143632E-01  0.176E-01    0.01       1.0  T
   3   -352.0712486 -0.143709E-01  0.387E-03    0.00       1.9  T
   4   -352.0702894  0.959210E-03  0.438E-02    0.00       1.0  T
   5   -352.0712549 -0.965547E-03  0.140E-03    0.00       5.2  T
   6   -352.0712550 -0.103651E-06  0.125E-03    0.00       5.8  T
   7   -352.0712557 -0.659420E-06  0.259E-04    0.00      28.1  T
   8   -352.0712557 -0.380970E-07  0.722E-05    0.00     100.8  T
   9   -352.0712557 -0.214618E-08  0.206E-05    0.00     352.4  T
     SCC iter.                  ...        0 min,  1.049 sec
     gradient                   ...        0 min,  0.410 sec
 * total energy  :  -346.5898558 Eh     change       -0.6977052E-03 Eh
   gradient norm :     0.0032646 Eh/α   predicted    -0.5395519E-03 ( -22.67%)
   displ. norm   :     0.5547351 α      lambda       -0.6338441E-03
   maximum displ.:     0.4031522 α      in ANC's #14, #21, #32, ...

........................................................................
.............................. CYCLE   37 ..............................
........................................................................
   1   -352.0753090 -0.352075E+03  0.762E-03    0.00       0.0  T
   2   -352.0515124  0.237966E-01  0.227E-01    0.00       1.0  T
   3   -352.0753253 -0.238129E-01  0.448E-03    0.00       1.6  T
   4   -352.0739566  0.136871E-02  0.523E-02    0.01       1.0  T
   5   -352.0753330 -0.137644E-02  0.193E-03    0.00       3.8  T
   6   -352.0753338 -0.775376E-06  0.136E-03    0.00       5.3  T
   7   -352.0753346 -0.785646E-06  0.313E-04    0.00      23.2  T
   8   -352.0753346 -0.124240E-07  0.254E-04    0.00      28.6  T
   9   -352.0753346 -0.297006E-07  0.169E-05    0.00     430.2  T
  10   -352.0753346  0.106525E-09  0.233E-05    0.00     312.2  T
     SCC iter.                  ...        0 min,  1.164 sec
     gradient                   ...        0 min,  0.412 sec
 * total energy  :  -346.5904193 Eh     change       -0.5635364E-03 Eh
   gradient norm :     0.0032086 Eh/α   predicted    -0.4144495E-03 ( -26.46%)
   displ. norm   :     0.5133240 α      lambda       -0.5282080E-03
   maximum displ.:     0.3739392 α      in ANC's #14, #35, #21, ...

........................................................................
.............................. CYCLE   38 ..............................
........................................................................
   1   -352.0775677 -0.352078E+03  0.855E-03    0.00       0.0  T
   2   -352.0485074  0.290603E-01  0.251E-01    0.00       1.0  T
   3   -352.0775822 -0.290748E-01  0.622E-03    0.00       1.2  T
   4   -352.0764012  0.118100E-02  0.487E-02    0.01       1.0  T
   5   -352.0775985 -0.119729E-02  0.182E-03    0.00       4.0  T
   6   -352.0775988 -0.311798E-06  0.157E-03    0.00       4.6  T
   7   -352.0775997 -0.946169E-06  0.621E-04    0.00      11.7  T
   8   -352.0775999 -0.113003E-06  0.349E-04    0.00      20.9  T
   9   -352.0775999 -0.556898E-07  0.122E-05    0.00     594.3  T
  10   -352.0775999  0.177010E-09  0.238E-05    0.00     305.1  T
     SCC iter.                  ...        0 min,  1.167 sec
     gradient                   ...        0 min,  0.414 sec
 * total energy  :  -346.5908944 Eh     change       -0.4751442E-03 Eh
   gradient norm :     0.0037450 Eh/α   predicted    -0.3336969E-03 ( -29.77%)
   displ. norm   :     0.5005441 α      lambda       -0.4834113E-03
   maximum displ.:     0.3593856 α      in ANC's #14, #35, #26, ...

........................................................................
.............................. CYCLE   39 ..............................
........................................................................
   1   -352.0787175 -0.352079E+03  0.700E-03    0.00       0.0  T
   2   -352.0585900  0.201275E-01  0.209E-01    0.00       1.0  T
   3   -352.0787157 -0.201257E-01  0.710E-03    0.00       1.0  T
   4   -352.0787187 -0.292798E-05  0.634E-03    0.00       1.1  T
   5   -352.0787358 -0.171745E-04  0.245E-03    0.00       3.0  T
   6   -352.0787371 -0.123436E-05  0.183E-03    0.00       4.0  T
   7   -352.0787384 -0.138649E-05  0.529E-04    0.00      13.7  T
   8   -352.0787386 -0.115617E-06  0.122E-04    0.00      59.6  T
   9   -352.0787386 -0.678858E-08  0.832E-06    0.00     874.1  T
     SCC iter.                  ...        0 min,  1.047 sec
     gradient                   ...        0 min,  0.413 sec
 * total energy  :  -346.5913347 Eh     change       -0.4402798E-03 Eh
   gradient norm :     0.0043175 Eh/α   predicted    -0.3022648E-03 ( -31.35%)
   displ. norm   :     0.5297283 α      lambda       -0.4944320E-03
   maximum displ.:     0.3727490 α      in ANC's #14, #35, #26, ...

........................................................................
.............................. CYCLE   40 ..............................
........................................................................
   1   -352.0793297 -0.352079E+03  0.552E-03    0.00       0.0  T
   2   -352.0665374  0.127923E-01  0.166E-01    0.00       1.0  T
   3   -352.0793141 -0.127768E-01  0.781E-03    0.00       1.0  T
   4   -352.0782962  0.101794E-02  0.456E-02    0.00       1.0  T
   5   -352.0793404 -0.104418E-02  0.219E-03    0.00       3.3  T
   6   -352.0793408 -0.440922E-06  0.192E-03    0.00       3.8  T
   7   -352.0793421 -0.130923E-05  0.916E-04    0.00       7.9  T
   8   -352.0793425 -0.344008E-06  0.240E-04    0.00      30.3  T
   9   -352.0793425 -0.259456E-07  0.176E-05    0.00     412.4  T
  10   -352.0793425 -0.102091E-09  0.120E-05    0.00     606.1  T
     SCC iter.                  ...        0 min,  1.162 sec
     gradient                   ...        0 min,  0.414 sec
 * total energy  :  -346.5917864 Eh     change       -0.4516946E-03 Eh
   gradient norm :     0.0046928 Eh/α   predicted    -0.3165902E-03 ( -29.91%)
   displ. norm   :     0.5799895 α      lambda       -0.5276811E-03
   maximum displ.:     0.4038996 α      in ANC's #14, #35, #26, ...

........................................................................
.............................. CYCLE   41 ..............................
........................................................................
   1   -352.0800330 -0.352080E+03  0.296E-03    0.00       0.0  T
   2   -352.0763323  0.370071E-02  0.881E-02    0.01       1.0  T
   3   -352.0800115 -0.367916E-02  0.708E-03    0.00       1.0  T
   4   -352.0798521  0.159424E-03  0.196E-02    0.00       1.0  T
   5   -352.0800349 -0.182803E-03  0.192E-03    0.00       3.8  T
   6   -352.0800352 -0.309861E-06  0.170E-03    0.00       4.3  T
   7   -352.0800364 -0.119548E-05  0.506E-04    0.00      14.4  T
   8   -352.0800365 -0.107084E-06  0.872E-05    0.00      83.4  T
   9   -352.0800365 -0.345096E-08  0.209E-05    0.00     348.5  T
     SCC iter.                  ...        0 min,  1.043 sec
     gradient                   ...        0 min,  0.412 sec
 * total energy  :  -346.5922640 Eh     change       -0.4775799E-03 Eh
   gradient norm :     0.0048241 Eh/α   predicted    -0.3525955E-03 ( -26.17%)
   displ. norm   :     0.6233335 α      lambda       -0.5429067E-03
   maximum displ.:     0.4351840 α      in ANC's #14, #35, #26, ...

........................................................................
.............................. CYCLE   42 ..............................
........................................................................
   1   -352.0811829 -0.352081E+03  0.231E-03    0.00       0.0  T
   2   -352.0785632  0.261970E-02  0.721E-02    0.01       1.0  T
   3   -352.0811837 -0.262050E-02  0.178E-03    0.00       4.1  T
   4   -352.0810211  0.162580E-03  0.188E-02    0.00       1.0  T
   5   -352.0811841 -0.162978E-03  0.151E-03    0.00       4.8  T
   6   -352.0811845 -0.368660E-06  0.119E-03    0.00       6.1  T
   7   -352.0811851 -0.632808E-06  0.183E-04    0.00      39.7  T
   8   -352.0811851 -0.104516E-07  0.623E-05    0.00     116.7  T
[...]
                           146 C    0.102
   143   6 C    3.990 --   142 C    1.467   144 C    1.364   175 H    0.971
                           147 C    0.105
   144   6 C    3.901 --   146 C    1.372   143 C    1.364   145 O    1.040
   145   8 O    2.044 --   144 C    1.040   176 H    0.865
   146   6 C    3.988 --   147 C    1.452   144 C    1.372   177 H    0.970
                           142 C    0.102
   147   6 C    3.988 --   146 C    1.452   141 C    1.393   178 H    0.973
                           143 C    0.105
   148   6 C    3.905 --   140 C    1.323   151 N    1.222   149 C    1.182
   149   6 C    3.955 --   150 C    1.640   148 C    1.182   179 H    0.973
   150   6 C    3.955 --   149 C    1.640   152 C    1.188   180 H    0.974
   151   7 N    3.241 --   152 C    1.260   148 C    1.222   133 Cu   0.498
   152   6 C    3.898 --   151 N    1.260   153 C    1.255   150 C    1.188
   153   6 C    3.927 --   154 C    1.255   152 C    1.255   125 C    1.193
   154   6 C    3.898 --   158 N    1.259   153 C    1.255   155 C    1.188
   155   6 C    3.955 --   156 C    1.639   154 C    1.188   181 H    0.974
   156   6 C    3.955 --   155 C    1.639   157 C    1.182   182 H    0.973
   157   6 C    3.905 --   159 C    1.322   158 N    1.222   156 C    1.182
   158   7 N    3.241 --   154 C    1.259   157 C    1.222   133 Cu   0.498
   159   6 C    3.930 --   167 C    1.323   157 C    1.322   160 C    1.029
   160   6 C    3.989 --   161 C    1.393   166 C    1.383   159 C    1.029
   161   6 C    3.988 --   162 C    1.452   160 C    1.393   183 H    0.973
                           165 C    0.105
   162   6 C    3.988 --   161 C    1.452   163 C    1.372   184 H    0.970
                           166 C    0.102
   163   6 C    3.901 --   162 C    1.372   165 C    1.364   164 O    1.040
   164   8 O    2.043 --   163 C    1.040   185 H    0.865
   165   6 C    3.990 --   166 C    1.467   163 C    1.364   186 H    0.971
                           161 C    0.105
   166   6 C    3.988 --   165 C    1.467   160 C    1.383   187 H    0.973
                           162 C    0.102
   167   6 C    3.905 --   159 C    1.323   171 N    1.222   168 C    1.182
   168   6 C    3.955 --   169 C    1.639   167 C    1.182   188 H    0.973
   169   6 C    3.954 --   168 C    1.639   170 C    1.189   189 H    0.974
   170   6 C    3.898 --   171 N    1.260   134 C    1.255   169 C    1.189
   171   7 N    3.240 --   170 C    1.260   167 C    1.222   133 Cu   0.498
   172   1 H    1.002 --   136 C    0.974
   173   1 H    1.005 --   137 C    0.973
   174   1 H    1.005 --   142 C    0.973
   175   1 H    0.999 --   143 C    0.971
   176   1 H    0.887 --   145 O    0.865
   177   1 H    0.999 --   146 C    0.970
   178   1 H    1.005 --   147 C    0.973
   179   1 H    1.005 --   149 C    0.973
   180   1 H    1.002 --   150 C    0.974
   181   1 H    1.002 --   155 C    0.974
   182   1 H    1.005 --   156 C    0.973
   183   1 H    1.005 --   161 C    0.973
   184   1 H    0.999 --   162 C    0.970
   185   1 H    0.887 --   164 O    0.865
   186   1 H    0.999 --   165 C    0.971
   187   1 H    1.005 --   166 C    0.973
   188   1 H    1.005 --   168 C    0.973
   189   1 H    1.002 --   169 C    0.974
 ---------------------------------------------------------------------------

Topologies differ in total number of bonds
Writing topology from bond orders to xtbtopo.mol

 dipole moment from electron density (au)
     X       Y       Z   
  -0.6190  -0.1850  -2.7833  total (Debye):    7.263

           -------------------------------------------------
          |                Geometry Summary                 |
           -------------------------------------------------

      molecular mass/u    :     1856.3620907
   center of mass at/Å    :       44.5937340      -0.0039725      -0.0139318
  moments of inertia/u·Å² :        0.3320953E+05   0.4116204E+06   0.4387633E+06
rotational constants/cm⁻¹ :        0.5076143E-03   0.4095432E-04   0.3842079E-04

 * 190 selected distances

     #   Z          #   Z                                           value/Å
     2   6 C        3   6 C                                       1.3868241
     3   6 C        4   6 C                                       1.4347415
     4   6 C        5   6 C                                       1.3562537
     5   6 C        6   6 C                                       1.4376246
     3   6 C        7   7 N                                       1.3658936
     6   6 C        7   7 N                                       1.3653154
     6   6 C        8   6 C                                       1.3972872
     9   6 C       10   6 C                                       1.3949974
    10   6 C       11   6 C                                       1.3864356
    11   6 C       12   6 C                                       1.3928265
    12   6 C       13   8 O                                       1.3582698
    12   6 C       14   6 C                                       1.3936287
     9   6 C       15   6 C                                       1.3968089
    14   6 C       15   6 C                                       1.3836653
     8   6 C       16   6 C                                       1.3960813
    16   6 C       17   6 C                                       1.4355472
    17   6 C       18   6 C                                       1.3571412
    16   6 C       19   7 N                                       1.3703686
    18   6 C       20   6 C                                       1.4320407
    19   7 N       20   6 C                                       1.3605123
    20   6 C       21   6 C                                       1.4063099
    21   6 C       22   6 C                                       1.4061256
    22   6 C       23   6 C                                       1.4319117
    23   6 C       24   6 C                                       1.3572041
    24   6 C       25   6 C                                       1.4355738
    22   6 C       26   7 N                                       1.3607026
    25   6 C       26   7 N                                       1.3702273
    25   6 C       27   6 C                                       1.3962540
    28   6 C       29   6 C                                       1.3970313
    29   6 C       30   6 C                                       1.3835857
    30   6 C       31   6 C                                       1.3936395
    31   6 C       32   8 O                                       1.3581501
    31   6 C       33   6 C                                       1.3928579
    28   6 C       34   6 C                                       1.3949885
    33   6 C       34   6 C                                       1.3865059
    27   6 C       35   6 C                                       1.3973314
    35   6 C       36   6 C                                       1.4376718 (max)
    36   6 C       37   6 C                                       1.3562350
     2   6 C       38   6 C                                       1.3868538
    37   6 C       38   6 C                                       1.4347364
    35   6 C       39   7 N                                       1.3653847
    38   6 C       39   7 N                                       1.3659196
     2   6 C       40   1 H                                       1.0852198
     4   6 C       41   1 H                                       1.0787200
     5   6 C       42   1 H                                       1.0781802
    10   6 C       43   1 H                                       1.0843575
    11   6 C       44   1 H                                       1.0847999
    13   8 O       45   1 H                                       0.9666016
    14   6 C       46   1 H                                       1.0829770
    15   6 C       47   1 H                                       1.0842972
    17   6 C       48   1 H                                       1.0779792
    18   6 C       49   1 H                                       1.0782678
    23   6 C       50   1 H                                       1.0782913
    24   6 C       51   1 H                                       1.0779783
    29   6 C       52   1 H                                       1.0843078
    30   6 C       53   1 H                                       1.0829869
    32   8 O       54   1 H                                       0.9665562 (min)
    33   6 C       55   1 H                                       1.0847631
    34   6 C       56   1 H                                       1.0843852
    36   6 C       57   1 H                                       1.0781909
    37   6 C       58   1 H                                       1.0787167
    60   6 C       61   6 C                                       1.3867860
    61   6 C       62   6 C                                       1.4346650
    62   6 C       63   6 C                                       1.3562543
    63   6 C       64   6 C                                       1.4375843
    61   6 C       65   7 N                                       1.3659027
    64   6 C       65   7 N                                       1.3653789
    64   6 C       66   6 C                                       1.3972576
    67   6 C       68   6 C                                       1.3950312
    68   6 C       69   6 C                                       1.3864165
    69   6 C       70   6 C                                       1.3928315
    70   6 C       71   8 O                                       1.3581516
    70   6 C       72   6 C                                       1.3936439
    67   6 C       73   6 C                                       1.3968237
    72   6 C       73   6 C                                       1.3836583
    66   6 C       74   6 C                                       1.3961066
    74   6 C       75   6 C                                       1.4355101
    75   6 C       76   6 C                                       1.3571393
    74   6 C       77   7 N                                       1.3704454
    76   6 C       78   6 C                                       1.4319531
    77   7 N       78   6 C                                       1.3606803
    78   6 C       79   6 C                                       1.4061762
    79   6 C       80   6 C                                       1.4061124
    80   6 C       81   6 C                                       1.4318472
    81   6 C       82   6 C                                       1.3571977
    82   6 C       83   6 C                                       1.4355506
    80   6 C       84   7 N                                       1.3607371
    83   6 C       84   7 N                                       1.3702573
    83   6 C       85   6 C                                       1.3961965
    86   6 C       87   6 C                                       1.3970668
    87   6 C       88   6 C                                       1.3835691
    88   6 C       89   6 C                                       1.3936474
    89   6 C       90   8 O                                       1.3580925
    89   6 C       91   6 C                                       1.3928828
    86   6 C       92   6 C                                       1.3950344
    91   6 C       92   6 C                                       1.3865022
    85   6 C       93   6 C                                       1.3973701
    93   6 C       94   6 C                                       1.4376137
    94   6 C       95   6 C                                       1.3562381
    60   6 C       96   6 C                                       1.3867526
    95   6 C       96   6 C                                       1.4346411
    93   6 C       97   7 N                                       1.3653617
    96   6 C       97   7 N                                       1.3660622
    60   6 C       98   1 H                                       1.0852091
    62   6 C       99   1 H                                       1.0787141
    63   6 C      100   1 H                                       1.0781749
    68   6 C      101   1 H                                       1.0843452
    69   6 C      102   1 H                                       1.0847993
    71   8 O      103   1 H                                       0.9665769
    72   6 C      104   1 H                                       1.0829684
    73   6 C      105   1 H                                       1.0842945
    75   6 C      106   1 H                                       1.0779740
    76   6 C      107   1 H                                       1.0782609
    81   6 C      108   1 H                                       1.0782937
    82   6 C      109   1 H                                       1.0779740
    87   6 C      110   1 H                                       1.0843097
    88   6 C      111   1 H                                       1.0829832
    90   8 O      112   1 H                                       0.9665784
    91   6 C      113   1 H                                       1.0847764
    92   6 C      114   1 H                                       1.0843856
    94   6 C      115   1 H                                       1.0781739
    95   6 C      116   1 H                                       1.0787137
   117   6 C      118   6 C                                       1.2244391
   119   6 C      120   6 C                                       1.2305882
   121   6 C      122   6 C                                       1.2306745
   123   6 C      124   6 C                                       1.2246942
   125   6 C      126   6 C                                       1.2246804
   127   6 C      128   6 C                                       1.2306836
   129   6 C      130   6 C                                       1.2306015
   131   6 C      132   6 C                                       1.2244415
   134   6 C      135   6 C                                       1.4068006
   135   6 C      136   6 C                                       1.4316320
   136   6 C      137   6 C                                       1.3575995
   137   6 C      138   6 C                                       1.4349914
   135   6 C      139   7 N                                       1.3602499
   138   6 C      139   7 N                                       1.3697074
   138   6 C      140   6 C                                       1.3967309
   141   6 C      142   6 C                                       1.3970372
   142   6 C      143   6 C                                       1.3835787
   143   6 C      144   6 C                                       1.3937387
   144   6 C      145   8 O                                       1.3579074
   144   6 C      146   6 C                                       1.3929605
   141   6 C      147   6 C                                       1.3952184
   146   6 C      147   6 C                                       1.3862705
   140   6 C      148   6 C                                       1.3966154
   148   6 C      149   6 C                                       1.4350456
   149   6 C      150   6 C                                       1.3575238
   148   6 C      151   7 N                                       1.3698148
   150   6 C      152   6 C                                       1.4316685
   151   7 N      152   6 C                                       1.3602230
   152   6 C      153   6 C                                       1.4068720
   153   6 C      154   6 C                                       1.4066444
   154   6 C      155   6 C                                       1.4316236
   155   6 C      156   6 C                                       1.3575795
   156   6 C      157   6 C                                       1.4350920
   154   6 C      158   7 N                                       1.3603625
   157   6 C      158   7 N                                       1.3696352
   157   6 C      159   6 C                                       1.3967638
   160   6 C      161   6 C                                       1.3951533
   161   6 C      162   6 C                                       1.3863482
   162   6 C      163   6 C                                       1.3929347
   163   6 C      164   8 O                                       1.3579816
   163   6 C      165   6 C                                       1.3937064
   160   6 C      166   6 C                                       1.3971489
   165   6 C      166   6 C                                       1.3835108
   159   6 C      167   6 C                                       1.3967462
   167   6 C      168   6 C                                       1.4350256
   168   6 C      169   6 C                                       1.3576256
   134   6 C      170   6 C                                       1.4067682
   169   6 C      170   6 C                                       1.4315656
   167   6 C      171   7 N                                       1.3698373
   170   6 C      171   7 N                                       1.3603258
   136   6 C      172   1 H                                       1.0782730
   137   6 C      173   1 H                                       1.0779982
   142   6 C      174   1 H                                       1.0843073
   143   6 C      175   1 H                                       1.0830065
   145   8 O      176   1 H                                       0.9665626
   146   6 C      177   1 H                                       1.0847698
   147   6 C      178   1 H                                       1.0843799
   149   6 C      179   1 H                                       1.0779654
   150   6 C      180   1 H                                       1.0782548
   155   6 C      181   1 H                                       1.0782863
   156   6 C      182   1 H                                       1.0779797
   161   6 C      183   1 H                                       1.0843594
   162   6 C      184   1 H                                       1.0847584
   164   8 O      185   1 H                                       0.9666095
   165   6 C      186   1 H                                       1.0829961
   166   6 C      187   1 H                                       1.0843046
   168   6 C      188   1 H                                       1.0779875
   169   6 C      189   1 H                                       1.0782968

 * 5 distinct bonds (by element types)

   Z      Z             #   av. dist./Å        max./Å        min./Å
   1 H    6 C          50     1.0813339     1.0852198     1.0779654
   6 C    6 C         104     1.3863664     1.4376718     1.2244391
   6 C    7 N          24     1.3653877     1.3704454     1.3602230
   1 H    8 O           6     0.9665809     0.9666095     0.9665562
   6 C    8 O           6     1.3580922     1.3582698     1.3579074


optimized geometry written to: xtbopt.xyz


           -------------------------------------------------
          | TOTAL ENERGY             -346.594187949271 Eh   |
          | GRADIENT NORM               0.000660332685 Eh/α |
          | HOMO-LUMO GAP               0.000253172607 eV   |
           -------------------------------------------------

------------------------------------------------------------------------
 * finished run on 2022/07/30 at 09:15:09.129     
------------------------------------------------------------------------
 total:
 * wall-time:     0 d,  0 h,  2 min, 13.274 sec
 *  cpu-time:     0 d,  0 h,  2 min, 12.685 sec
 * ratio c/w:     0.996 speedup
 SCF:
 * wall-time:     0 d,  0 h,  0 min,  7.671 sec
 *  cpu-time:     0 d,  0 h,  0 min,  7.635 sec
 * ratio c/w:     0.995 speedup
 ANC optimizer:
 * wall-time:     0 d,  0 h,  2 min,  5.418 sec
 *  cpu-time:     0 d,  0 h,  2 min,  4.869 sec
 * ratio c/w:     0.996 speedup

