      -----------------------------------------------------------      
     |                   =====================                   |     
     |                           x T B                           |     
     |                   =====================                   |     
     |                         S. Grimme                         |     
     |          Mulliken Center for Theoretical Chemistry        |     
     |                    University of Bonn                     |     
      -----------------------------------------------------------      

   * xtb version 6.5.1 (b24c23e) compiled by 'conda@728c89f4b128' on 2022-07-12

   xtb is free software: you can redistribute it and/or modify it under
   the terms of the GNU Lesser General Public License as published by
   the Free Software Foundation, either version 3 of the License, or
   (at your option) any later version.
   
   xtb is distributed in the hope that it will be useful,
   but WITHOUT ANY WARRANTY; without even the implied warranty of
   MERCHANTABILITY or FITNESS FOR A PARTICULAR PURPOSE.  See the
   GNU Lesser General Public License for more details.
   
   Cite this work as:
   * C. Bannwarth, E. Caldeweyher, S. Ehlert, A. Hansen, P. Pracht,
     J. Seibert, S. Spicher, S. Grimme, WIREs Comput. Mol. Sci., 2020, 11,
     e01493. DOI: 10.1002/wcms.1493
   
   for GFN2-xTB:
   * C. Bannwarth, S. Ehlert and S. Grimme., J. Chem. Theory Comput., 2019,
     15, 1652-1671. DOI: 10.1021/acs.jctc.8b01176
   for GFN1-xTB:
   * S. Grimme, C. Bannwarth, P. Shushkov, J. Chem. Theory Comput., 2017,
     13, 1989-2009. DOI: 10.1021/acs.jctc.7b00118
   for GFN0-xTB:
   * P. Pracht, E. Caldeweyher, S. Ehlert, S. Grimme, ChemRxiv, 2019, preprint.
     DOI: 10.26434/chemrxiv.8326202.v1
   for GFN-FF:
   * S. Spicher and S. Grimme, Angew. Chem. Int. Ed., 2020, 59, 15665-15673.
     DOI: 10.1002/anie.202004239
   
   for ALPB and GBSA implicit solvation:
   * S. Ehlert, M. Stahn, S. Spicher, S. Grimme, J. Chem. Theory Comput.,
     2021, 17, 4250-4261. DOI: 10.1021/acs.jctc.1c00471
   
   for DFT-D4:
   * E. Caldeweyher, C. Bannwarth and S. Grimme, J. Chem. Phys., 2017,
     147, 034112. DOI: 10.1063/1.4993215
   * E. Caldeweyher, S. Ehlert, A. Hansen, H. Neugebauer, S. Spicher,
     C. Bannwarth and S. Grimme, J. Chem. Phys., 2019, 150, 154122.
     DOI: 10.1063/1.5090222
   * E. Caldeweyher, J.-M. Mewes, S. Ehlert and S. Grimme, Phys. Chem. Chem. Phys.
     2020, 22, 8499-8512. DOI: 10.1039/D0CP00502A
   
   for sTDA-xTB:
   * S. Grimme and C. Bannwarth, J. Chem. Phys., 2016, 145, 054103.
     DOI: 10.1063/1.4959605
   
   in the mass-spec context:
   * V. Asgeirsson, C. Bauer and S. Grimme, Chem. Sci., 2017, 8, 4879.
     DOI: 10.1039/c7sc00601b
   * J. Koopman and S. Grimme, ACS Omega 2019, 4, 12, 15120-15133.
     DOI: 10.1021/acsomega.9b02011
   
   for metadynamics refer to:
   * S. Grimme, J. Chem. Theory Comput., 2019, 155, 2847-2862
     DOI: 10.1021/acs.jctc.9b00143
   
   for SPH calculations refer to:
   * S. Spicher and S. Grimme, J. Chem. Theory Comput., 2021, 17, 1701-1714
     DOI: 10.1021/acs.jctc.0c01306
   
   with help from (in alphabetical order)
   P. Atkinson, C. Bannwarth, F. Bohle, G. Brandenburg, E. Caldeweyher
   M. Checinski, S. Dohm, S. Ehlert, S. Ehrlich, I. Gerasimov, C. Hölzer
   A. Katbashev, J. Koopman, C. Lavigne, S. Lehtola, F. März, M. Müller,
   F. Musil, H. Neugebauer, J. Pisarek, C. Plett, P. Pracht, F. Pultar,
   J. Seibert, P. Shushkov, S. Spicher, M. Stahn, M. Steiner, T. Strunk,
   J. Stückrath, T. Rose, and J. Unsleber
   
 * started run on 2022/07/30 at 00:25:26.790     

           -------------------------------------------------
          |                Calculation Setup                |
           -------------------------------------------------

          program call               : xtb xtbopt.xyz --gfn 1 --vipea
          hostname                   : cx3-15-15.cx3.hpc.ic.ac.uk
          coordinate file            : xtbopt.xyz
          omp threads                :                     1

   ID    Z sym.   atoms
    1   27 Co     1, 63, 143, 204
    2    6 C      2-6, 8-12, 15-20, 22-27, 29-35, 38-42, 64-68, 70-74, 77-82,
                  84-89, 91-97, 100-104, 125-142, 144-148, 150-154, 157-162,
                  164-169, 171-177, 180-184, 205-209, 211-215, 218-223,
                  225-230, 232-238, 241-245
    3    7 N      7, 21, 28, 43, 69, 83, 90, 105, 149, 163, 170, 185, 210,
                  224, 231, 246
    4    8 O      13, 14, 36, 37, 75, 76, 98, 99, 155, 156, 178, 179, 216,
                  217, 239, 240
    5    1 H      44-62, 106-124, 186-203, 247-264

           -------------------------------------------------
          |                 I P E A - x T B                 |
           -------------------------------------------------

        Reference                      10.1039/c7sc00601b
      * Hamiltonian:
        H0-scaling (s, p, d)           2.150000    2.300000    2.000000
        zeta-weighting                 0.000000
      * Dispersion:
        s8                             2.400000
        a1                             0.630000
        a2                             5.000000
        s9                             0.000000
      * Repulsion:
        kExp                           1.500000
        rExp                           1.000000
      * Coulomb:
        alpha                          1.000000
        third order                    atomic
        anisotropic                    false
      * Halogen bond correction:
        rad-scale                      1.300000
        damping                        0.440000


          ...................................................
          :                      SETUP                      :
          :.................................................:
          :  # basis functions                1118          :
          :  # atomic orbitals                1114          :
          :  # shells                          718          :
          :  # electrons                       902          :
          :  # halogen bonds                     0          :
          :  max. iterations                   250          :
          :  Hamiltonian                  GFN1-xTB          :
          :  restarted?                      false          :
          :  GBSA solvation                  false          :
          :  PC potential                    false          :
          :  electronic temp.          300.0000000     K    :
          :  accuracy                    1.0000000          :
          :  -> integral cutoff          0.2500000E+02      :
          :  -> integral neglect         0.1000000E-07      :
          :  -> SCF convergence          0.1000000E-05 Eh   :
          :  -> wf. convergence          0.2000000E-04 e    :
          :  Broyden damping             0.4000000          :
          ...................................................

 iter      E             dE          RMSdq      gap      omega  full diag
   1   -569.2211244 -0.569221E+03  0.106E+01    0.22       0.0  T
   2   -551.7389219  0.174822E+02  0.924E+00    0.02       1.0  T
   3   -555.6156844 -0.387676E+01  0.631E+00    0.22       1.0  T
   4   -196.7156242  0.358900E+03  0.970E+00    0.04       1.0  T
   5      9.7322947  0.206448E+03  0.115E+01    0.02       1.0  T
   6   -543.1316948 -0.552864E+03  0.566E+00    0.01       1.0  T
   7   -556.4854789 -0.133538E+02  0.410E+00    0.08       1.0  T
   8   -554.9401066  0.154537E+01  0.491E+00    0.13       1.0  T
   9   -553.1064383  0.183367E+01  0.467E+00    0.13       1.0  T
  10   -554.0974003 -0.990962E+00  0.401E+00    0.02       1.0  T
  11   -552.9972697  0.110013E+01  0.436E+00    0.09       1.0  T
  12   -552.0869834  0.910286E+00  0.468E+00    0.22       1.0  T
  13   -564.0461655 -0.119592E+02  0.301E+00    0.00       1.0  T
  14   -571.2048269 -0.715866E+01  0.192E+00    0.07       1.0  T
  15   -567.4685126  0.373631E+01  0.273E+00    0.05       1.0  T
  16   -571.8024434 -0.433393E+01  0.136E+00    0.09       1.0  T
  17   -571.4616482  0.340795E+00  0.168E+00    0.03       1.0  T
  18   -572.4410913 -0.979443E+00  0.909E-01    0.01       1.0  T
  19   -571.2797303  0.116136E+01  0.191E+00    0.01       1.0  T
  20   -572.0076430 -0.727913E+00  0.145E+00    0.09       1.0  T
  21   -572.3108189 -0.303176E+00  0.101E+00    0.04       1.0  T
  22   -571.0680721  0.124275E+01  0.194E+00    0.01       1.0  T
  23   -572.6054936 -0.153742E+01  0.826E-01    0.00       1.0  T
  24   -572.6548134 -0.493198E-01  0.787E-01    0.02       1.0  T
  25   -572.6430543  0.117591E-01  0.789E-01    0.01       1.0  T
  26   -572.7262549 -0.832005E-01  0.627E-01    0.00       1.0  T
  27   -572.6540480  0.722069E-01  0.768E-01    0.03       1.0  T
  28   -572.7281395 -0.740915E-01  0.566E-01    0.01       1.0  T
  29   -572.8230195 -0.948800E-01  0.522E-01    0.02       1.0  T
  30   -572.8049050  0.181145E-01  0.469E-01    0.02       1.0  T
  31   -572.8451240 -0.402190E-01  0.482E-01    0.02       1.0  T
  32   -572.8721824 -0.270583E-01  0.367E-01    0.01       1.0  T
  33   -572.8984660 -0.262836E-01  0.292E-01    0.01       1.0  T
  34   -572.8606922  0.377738E-01  0.404E-01    0.00       1.0  T
  35   -572.8901652 -0.294730E-01  0.322E-01    0.01       1.0  T
  36   -572.9138552 -0.236900E-01  0.141E-01    0.01       1.0  T
  37   -572.8994244  0.144308E-01  0.274E-01    0.00       1.0  T
  38   -572.9071036 -0.767928E-02  0.200E-01    0.00       1.0  T
  39   -572.9140102 -0.690658E-02  0.146E-01    0.00       1.0  T
  40   -572.9129319  0.107834E-02  0.150E-01    0.00       1.0  T
  41   -572.9153341 -0.240224E-02  0.116E-01    0.01       1.0  T
  42   -572.9175541 -0.221996E-02  0.970E-02    0.01       1.0  T
  43   -572.9206440 -0.308987E-02  0.475E-02    0.00       1.0  T
  44   -572.9211882 -0.544206E-03  0.403E-02    0.00       1.0  T
  45   -572.9214493 -0.261185E-03  0.321E-02    0.00       1.0  T
  46   -572.9212081  0.241208E-03  0.405E-02    0.00       1.0  T
  47   -572.9217841 -0.575989E-03  0.171E-02    0.00       1.0  T
  48   -572.9218645 -0.804186E-04  0.102E-02    0.00       1.0  T
  49   -572.9218856 -0.210807E-04  0.761E-03    0.00       1.0  T
  50   -572.9218754  0.102736E-04  0.908E-03    0.00       1.0  T
  51   -572.9218895 -0.141212E-04  0.620E-03    0.00       1.0  T
  52   -572.9218958 -0.630577E-05  0.427E-03    0.00       1.4  T
  53   -572.9218981 -0.234703E-05  0.316E-03    0.00       2.0  T
  54   -572.9219013 -0.314804E-05  0.143E-03    0.00       4.3  T
  55   -572.9219022 -0.887931E-06  0.693E-04    0.00       8.9  T
  56   -572.9219021  0.888284E-07  0.904E-04    0.00       6.8  T
  57   -572.9219021  0.135369E-07  0.892E-04    0.00       6.9  T
  58   -572.9219021 -0.437493E-07  0.782E-04    0.00       7.9  T
  59   -572.9219023 -0.152624E-06  0.457E-04    0.00      13.5  T
  60   -572.9219023 -0.461932E-07  0.282E-04    0.00      21.9  T
  61   -572.9219023 -0.355324E-07  0.631E-05    0.00      97.6  T
  62   -572.9219023  0.175078E-08  0.123E-04    0.00      50.0  T

   *** convergence criteria satisfied after 62 iterations ***

         #    Occupation            Energy/Eh            Energy/eV
      -------------------------------------------------------------
         1        2.0000           -1.0632534             -28.9326
       ...           ...                  ...                  ...
       445        1.9999           -0.3677878             -10.0080
       446        1.9999           -0.3676494             -10.0043
       447        1.9998           -0.3674864              -9.9998
       448        1.9998           -0.3674686              -9.9993
       449        1.9997           -0.3668369              -9.9821
       450        1.0601           -0.3586919              -9.7605
       451        1.0085           -0.3585938              -9.7578 (HOMO)
       452        0.9844           -0.3585479              -9.7566 (LUMO)
       453        0.9485           -0.3584797              -9.7547
       454                         -0.3256888              -8.8624
       455                         -0.3182386              -8.6597
       456                         -0.3087353              -8.4011
       ...                                ...                  ...
      1114                        505.8681643           13765.3734
      -------------------------------------------------------------
                  HL-Gap            0.0000458 Eh            0.0012 eV
             Fermi-level           -0.3585775 Eh           -9.7574 eV

 SCC (total)                   0 d,  0 h,  0 min, 34.942 sec
 SCC setup                      ...        0 min,  0.009 sec (  0.027%)
 Dispersion                     ...        0 min,  0.013 sec (  0.037%)
 classical contributions        ...        0 min,  0.004 sec (  0.011%)
 integral evaluation            ...        0 min,  0.840 sec (  2.404%)
 iterations                     ...        0 min, 32.247 sec ( 92.288%)
 molecular gradient             ...        0 min,  1.705 sec (  4.880%)
 printout                       ...        0 min,  0.123 sec (  0.353%)

         :::::::::::::::::::::::::::::::::::::::::::::::::::::
         ::                     SUMMARY                     ::
         :::::::::::::::::::::::::::::::::::::::::::::::::::::
         :: total energy            -562.335829183258 Eh    ::
         :: gradient norm              0.120044517510 Eh/a0 ::
         :: HOMO-LUMO gap              0.001246879612 eV    ::
         ::.................................................::
         :: SCC energy              -572.921902338236 Eh    ::
         :: -> electrostatic           0.515867961624 Eh    ::
         :: repulsion energy          10.823215091903 Eh    ::
         :: dispersion energy         -0.237141936924 Eh    ::
         :: halogen bond corr.         0.000000000000 Eh    ::
         :: add. restraining           0.000000000000 Eh    ::
         :: total charge               0.000000000000 e     ::
         :::::::::::::::::::::::::::::::::::::::::::::::::::::

           ------------------------------------------------- 
          |        vertical delta SCC IP calculation        |
           ------------------------------------------------- 
   1   -572.5178863 -0.572518E+03  0.271E-01    0.00       0.0  T
   2   -572.3751759  0.142710E+00  0.693E-01    0.00       1.0  T
   3   -571.5730939  0.802082E+00  0.149E+00    0.23       1.0  T
   4   -572.2839093 -0.710815E+00  0.738E-01    0.09       1.0  T
   5   -572.2690538  0.148556E-01  0.753E-01    0.07       1.0  T
   6   -572.4426864 -0.173633E+00  0.464E-01    0.03       1.0  T
   7   -572.3949803  0.477061E-01  0.567E-01    0.00       1.0  T
   8   -572.5059607 -0.110980E+00  0.254E-01    0.03       1.0  T
   9   -572.5330314 -0.270707E-01  0.773E-02    0.00       1.0  T
  10   -572.5304986  0.253287E-02  0.108E-01    0.00       1.0  T
  11   -572.5263039  0.419468E-02  0.145E-01    0.01       1.0  T
  12   -572.5316658 -0.536188E-02  0.954E-02    0.00       1.0  T
  13   -572.5343905 -0.272471E-02  0.570E-02    0.00       1.0  T
  14   -572.5356895 -0.129898E-02  0.208E-02    0.00       1.0  T
  15   -572.5358873 -0.197847E-03  0.163E-03    0.00       3.8  T
  16   -572.5358881 -0.835311E-06  0.107E-03    0.00       5.8  T
  17   -572.5358876  0.518962E-06  0.149E-03    0.00       4.1  T
  18   -572.5358884 -0.792656E-06  0.714E-04    0.00       8.6  T
  19   -572.5358886 -0.180253E-06  0.345E-04    0.00      17.8  T
  20   -572.5358886 -0.524439E-07  0.931E-05    0.00      66.1  T
  21   -572.5358886 -0.384387E-08  0.256E-05    0.00     240.0  T
     SCC iter.                  ...        0 min, 10.907 sec
     gradient                   ...        0 min,  1.686 sec
------------------------------------------------------------------------
empirical IP shift (eV):    4.8455
delta SCC IP (eV):    5.6585
------------------------------------------------------------------------
           ------------------------------------------------- 
          |        vertical delta SCC EA calculation        |
           ------------------------------------------------- 
   1   -573.1902220 -0.573190E+03  0.520E-01    0.01       0.0  T
   2   -573.1253286  0.648935E-01  0.567E-01    0.00       1.0  T
   3   -572.6486041  0.476724E+00  0.124E+00    0.12       1.0  T
   4   -572.2038376  0.444766E+00  0.151E+00    0.26       1.0  T
   5   -573.1601841 -0.956347E+00  0.477E-01    0.01       1.0  T
   6   -573.1382772  0.219069E-01  0.527E-01    0.02       1.0  T
   7   -572.9461663  0.192111E+00  0.852E-01    0.01       1.0  T
   8   -573.0587900 -0.112624E+00  0.666E-01    0.03       1.0  T
   9   -573.2007711 -0.141981E+00  0.346E-01    0.01       1.0  T
  10   -573.2029651 -0.219403E-02  0.339E-01    0.00       1.0  T
  11   -573.1352592  0.677059E-01  0.520E-01    0.00       1.0  T
  12   -573.1877425 -0.524833E-01  0.386E-01    0.01       1.0  T
  13   -573.2262202 -0.384777E-01  0.248E-01    0.00       1.0  T
  14   -573.2519499 -0.257298E-01  0.533E-02    0.00       1.0  T
  15   -573.2522031 -0.253179E-03  0.491E-02    0.00       1.0  T
  16   -573.2530609 -0.857729E-03  0.217E-02    0.00       1.0  T
  17   -573.2532587 -0.197842E-03  0.404E-03    0.00       1.5  T
  18   -573.2532580  0.706799E-06  0.423E-03    0.00       1.5  T
  19   -573.2532567  0.128353E-05  0.457E-03    0.00       1.3  T
  20   -573.2532652 -0.852716E-05  0.155E-03    0.00       4.0  T
  21   -573.2532662 -0.949724E-06  0.602E-04    0.00      10.2  T
  22   -573.2532663 -0.145311E-06  0.204E-04    0.00      30.2  T
  23   -573.2532663 -0.156148E-07  0.786E-05    0.00      78.3  T
  24   -573.2532663 -0.127898E-08  0.598E-05    0.00     102.9  T
     SCC iter.                  ...        0 min, 12.424 sec
     gradient                   ...        0 min,  1.685 sec
------------------------------------------------------------------------
empirical EA shift (eV):    4.8455
delta SCC EA (eV):    4.1714
------------------------------------------------------------------------
           -------------------------------------------------
          |                Property Printout                |
           -------------------------------------------------

    * Orbital Energies and Occupations

         #    Occupation            Energy/Eh            Energy/eV
      -------------------------------------------------------------
         1        2.0000           -1.0328670             -28.1057
       ...           ...                  ...                  ...
       440        2.0000           -0.3157121              -8.5910
       441        2.0000           -0.3156155              -8.5883
       442        2.0000           -0.3155312              -8.5860
       443        2.0000           -0.3154876              -8.5849
       444        2.0000           -0.3154748              -8.5845
       445        2.0000           -0.3152915              -8.5795
       446        1.9999           -0.3149891              -8.5713
       447        1.9999           -0.3145497              -8.5593
       448        1.9999           -0.3143384              -8.5536
       449        1.9998           -0.3140595              -8.5460
       450        1.2840           -0.3056045              -8.3159
       451        1.2623           -0.3055567              -8.3146
       452        1.2436           -0.3055162              -8.3135 (HOMO)
       453        1.2108           -0.3054456              -8.3116 (LUMO)
       454                         -0.2821769              -7.6784
       455                         -0.2752712              -7.4905
       456                         -0.2661011              -7.2410
       457                         -0.2644285              -7.1955
       458                         -0.2637226              -7.1763
       459                         -0.2636866              -7.1753
       460                         -0.2634626              -7.1692
       461                         -0.2602775              -7.0825
       462                         -0.2408980              -6.5552
       463                         -0.2394947              -6.5170
       ...                                ...                  ...
      1114                        505.9101903           13766.5170
      -------------------------------------------------------------
                  HL-Gap            0.0000706 Eh            0.0019 eV
             Fermi-level           -0.3050081 Eh           -8.2997 eV

  Mulliken/CM5 charges         n(s)   n(p)   n(d)
     1Co    0.31855  0.72905   0.325  0.984  7.372
     2C    -0.01992 -0.06112   1.086  2.934  0.000
     3C     0.05605  0.11644   1.111  2.833  0.000
     4C    -0.03813 -0.08460   1.084  2.954  0.000
     5C    -0.03676 -0.08292   1.077  2.959  0.000
     6C     0.05815  0.12219   1.106  2.836  0.000
     7N    -0.21451 -0.47628   1.317  3.897  0.000
     8C     0.00797  0.01348   1.082  2.910  0.000
     9C     0.01210  0.00360   1.087  2.901  0.000
    10C    -0.00824 -0.05736   1.083  2.925  0.000
    11C     0.00670  0.00320   1.088  2.905  0.000
    12C     0.23385  0.28883   1.195  2.571  0.000
    13O    -0.28082 -0.47740   1.681  4.600  0.000
    14O    -0.32933 -0.37920   1.629  4.701  0.000
    15C    -0.01694 -0.06860   1.087  2.930  0.000
    16C    -0.02297 -0.07859   1.087  2.936  0.000
    17C    -0.01355 -0.06688   1.086  2.927  0.000
    18C     0.05681  0.11999   1.104  2.840  0.000
    19C    -0.03699 -0.08313   1.077  2.960  0.000
    20C    -0.03739 -0.08295   1.082  2.955  0.000
    21N    -0.21313 -0.47451   1.318  3.895  0.000
    22C     0.06109  0.12627   1.116  2.823  0.000
    23C     0.01813  0.02522   1.080  2.902  0.000
    24C     0.06095  0.12610   1.116  2.823  0.000
    25C    -0.03726 -0.08283   1.083  2.954  0.000
    26C    -0.03700 -0.08313   1.077  2.960  0.000
    27C     0.05660  0.11980   1.104  2.840  0.000
    28N    -0.21338 -0.47454   1.318  3.895  0.000
    29C     0.00741  0.01287   1.083  2.910  0.000
    30C     0.01126  0.00270   1.086  2.902  0.000
    31C    -0.01343 -0.06674   1.086  2.927  0.000
    32C    -0.02196 -0.07754   1.087  2.935  0.000
    33C    -0.01473 -0.06635   1.090  2.925  0.000
    34C     0.00657  0.00307   1.088  2.905  0.000
    35C     0.23378  0.28875   1.195  2.571  0.000
    36O    -0.27864 -0.47540   1.681  4.598  0.000
    37O    -0.33175 -0.38147   1.628  4.704  0.000
    38C    -0.01046 -0.05960   1.080  2.930  0.000
    39C     0.05751  0.12151   1.106  2.837  0.000
    40C    -0.03770 -0.08386   1.077  2.960  0.000
    41C    -0.03876 -0.08523   1.084  2.954  0.000
    42C     0.05578  0.11619   1.111  2.834  0.000
    43N    -0.21470 -0.47654   1.317  3.898  0.000
    44H     0.02725  0.08613   0.973  0.000  0.000
    45H     0.02943  0.08604   0.971  0.000  0.000
    46H     0.02197  0.08080   0.978  0.000  0.000
    47H     0.03516  0.09783   0.965  0.000  0.000
    48H     0.24182  0.41760   0.758  0.000  0.000
    49H     0.04535  0.10658   0.955  0.000  0.000
    50H     0.03643  0.09237   0.964  0.000  0.000
    51H     0.02633  0.08434   0.974  0.000  0.000
    52H     0.02135  0.08009   0.979  0.000  0.000
    53H     0.02530  0.08329   0.975  0.000  0.000
    54H     0.02572  0.08370   0.974  0.000  0.000
    55H     0.02193  0.08068   0.978  0.000  0.000
    56H     0.02671  0.08470   0.973  0.000  0.000
    57H     0.03727  0.09320   0.963  0.000  0.000
    58H     0.04443  0.10489   0.956  0.000  0.000
    59H     0.24098  0.41678   0.759  0.000  0.000
    60H     0.03596  0.09948   0.964  0.000  0.000
    61H     0.02213  0.08095   0.978  0.000  0.000
    62H     0.02945  0.08606   0.971  0.000  0.000
    63Co    0.31801  0.72948   0.325  0.978  7.379
    64C    -0.01972 -0.06099   1.086  2.933  0.000
    65C     0.05642  0.11716   1.110  2.833  0.000
    66C    -0.03801 -0.08447   1.084  2.954  0.000
    67C    -0.03660 -0.08286   1.078  2.959  0.000
    68C     0.05801  0.12179   1.106  2.836  0.000
    69N    -0.21486 -0.47645   1.317  3.898  0.000
    70C     0.00814  0.01359   1.083  2.909  0.000
    71C     0.01203  0.00351   1.087  2.901  0.000
    72C    -0.00802 -0.05729   1.082  2.926  0.000
    73C     0.00677  0.00325   1.088  2.905  0.000
    74C     0.23390  0.28887   1.195  2.571  0.000
    75O    -0.28075 -0.47732   1.681  4.600  0.000
    76O    -0.32924 -0.37915   1.629  4.701  0.000
    77C    -0.01701 -0.06867   1.087  2.930  0.000
    78C    -0.02315 -0.07875   1.087  2.936  0.000
    79C    -0.01404 -0.06724   1.088  2.926  0.000
    80C     0.05716  0.12075   1.103  2.840  0.000
    81C    -0.03724 -0.08323   1.077  2.961  0.000
    82C    -0.03745 -0.08300   1.084  2.954  0.000
    83N    -0.21294 -0.47503   1.318  3.895  0.000
    84C     0.06084  0.12576   1.117  2.822  0.000
    85C     0.01797  0.02496   1.080  2.902  0.000
    86C     0.06141  0.12698   1.116  2.823  0.000
    87C    -0.03744 -0.08299   1.082  2.955  0.000
    88C    -0.03704 -0.08325   1.078  2.959  0.000
    89C     0.05644  0.11934   1.104  2.839  0.000
    90N    -0.21358 -0.47459   1.318  3.896  0.000
    91C     0.00766  0.01307   1.083  2.910  0.000
    92C     0.01128  0.00269   1.086  2.902  0.000
    93C    -0.01330 -0.06676   1.085  2.928  0.000
    94C    -0.02196 -0.07756   1.087  2.935  0.000
    95C    -0.01478 -0.06641   1.090  2.925  0.000
    96C     0.00654  0.00307   1.089  2.904  0.000
    97C     0.23378  0.28878   1.195  2.571  0.000
    98O    -0.27855 -0.47527   1.680  4.598  0.000
    99O    -0.33172 -0.38145   1.628  4.704  0.000
   100C    -0.01084 -0.05982   1.082  2.929  0.000
   101C     0.05791  0.12237   1.105  2.837  0.000
   102C    -0.03800 -0.08397   1.077  2.961  0.000
   103C    -0.03877 -0.08524   1.086  2.953  0.000
   104C     0.05572  0.11587   1.112  2.833  0.000
   105N    -0.21436 -0.47711   1.317  3.898  0.000
   106H     0.02696  0.08585   0.973  0.000  0.000
   107H     0.02992  0.08655   0.970  0.000  0.000
   108H     0.02224  0.08117   0.978  0.000  0.000
   109H     0.03534  0.09810   0.965  0.000  0.000
   110H     0.24188  0.41766   0.758  0.000  0.000
   111H     0.04533  0.10654   0.955  0.000  0.000
   112H     0.03610  0.09203   0.964  0.000  0.000
   113H     0.02612  0.08400   0.974  0.000  0.000
   114H     0.02174  0.08048   0.978  0.000  0.000
   115H     0.02498  0.08300   0.975  0.000  0.000
   116H     0.02575  0.08379   0.974  0.000  0.000
   117H     0.02173  0.08054   0.978  0.000  0.000
   118H     0.02673  0.08473   0.973  0.000  0.000
   119H     0.03732  0.09326   0.963  0.000  0.000
   120H     0.04449  0.10496   0.956  0.000  0.000
   121H     0.24123  0.41702   0.759  0.000  0.000
   122H     0.03599  0.09930   0.964  0.000  0.000
   123H     0.02242  0.08116   0.978  0.000  0.000
   124H     0.02915  0.08576   0.971  0.000  0.000
   125C    -0.01451 -0.01460   1.077  2.938  0.000
   126C    -0.01487 -0.01495   1.077  2.938  0.000
   127C    -0.01969 -0.02034   1.065  2.955  0.000
   128C    -0.01539 -0.01690   1.093  2.922  0.000
   129C    -0.01916 -0.01982   1.065  2.954  0.000
   130C    -0.01462 -0.01615   1.094  2.921  0.000
   131C    -0.01419 -0.01428   1.077  2.937  0.000
   132C    -0.01430 -0.01439   1.077  2.938  0.000
   133C    -0.01912 -0.01978   1.065  2.954  0.000
   134C    -0.01491 -0.01644   1.094  2.921  0.000
   135C    -0.01883 -0.01950   1.065  2.954  0.000
   136C    -0.01459 -0.01613   1.094  2.921  0.000
   137C    -0.01527 -0.01536   1.077  2.938  0.000
   138C    -0.01503 -0.01512   1.077  2.938  0.000
   139C    -0.01979 -0.02045   1.065  2.955  0.000
   140C    -0.01511 -0.01663   1.094  2.921  0.000
   141C    -0.02003 -0.02070   1.065  2.955  0.000
   142C    -0.01561 -0.01716   1.094  2.922  0.000
   143Co    0.32586  0.73898   0.323  0.973  7.378
   144C     0.01887  0.02589   1.081  2.900  0.000
   145C     0.06218  0.12790   1.116  2.822  0.000
   146C    -0.03624 -0.08178   1.082  2.955  0.000
   147C    -0.03520 -0.08145   1.078  2.957  0.000
   148C     0.05720  0.12019   1.104  2.839  0.000
   149N    -0.21238 -0.47419   1.317  3.895  0.000
   150C     0.01075  0.01620   1.084  2.905  0.000
   151C     0.01217  0.00366   1.086  2.901  0.000
   152C    -0.00744 -0.05671   1.082  2.926  0.000
   153C     0.00730  0.00379   1.088  2.905  0.000
   154C     0.23430  0.28932   1.195  2.571  0.000
   155O    -0.28040 -0.47697   1.681  4.600  0.000
   156O    -0.32815 -0.37806   1.628  4.700  0.000
   157C    -0.01660 -0.06826   1.087  2.930  0.000
   158C    -0.02298 -0.07858   1.087  2.936  0.000
   159C    -0.01406 -0.06723   1.088  2.926  0.000
   160C     0.05739  0.12119   1.102  2.841  0.000
   161C    -0.03667 -0.08263   1.077  2.960  0.000
   162C    -0.03714 -0.08267   1.084  2.953  0.000
   163N    -0.21205 -0.47517   1.316  3.896  0.000
   164C     0.06116  0.12614   1.117  2.822  0.000
   165C     0.01857  0.02558   1.081  2.900  0.000
   166C     0.06187  0.12768   1.116  2.823  0.000
   167C    -0.03697 -0.08250   1.082  2.955  0.000
   168C    -0.03626 -0.08251   1.078  2.959  0.000
   169C     0.05645  0.11935   1.104  2.840  0.000
   170N    -0.21274 -0.47439   1.317  3.896  0.000
   171C     0.01007  0.01548   1.084  2.905  0.000
   172C     0.01131  0.00275   1.086  2.903  0.000
   173C    -0.01417 -0.06731   1.088  2.926  0.000
   174C    -0.02228 -0.07784   1.088  2.935  0.000
   175C    -0.01453 -0.06615   1.090  2.924  0.000
   176C     0.00718  0.00367   1.088  2.905  0.000
   177C     0.23423  0.28925   1.194  2.571  0.000
   178O    -0.27756 -0.47434   1.680  4.597  0.000
   179O    -0.33112 -0.38087   1.628  4.703  0.000
   180C    -0.00963 -0.05893   1.079  2.931  0.000
   181C     0.05706  0.12095   1.102  2.841  0.000
   182C    -0.03715 -0.08310   1.077  2.960  0.000
   183C    -0.03743 -0.08296   1.084  2.954  0.000
   184C     0.06090  0.12580   1.117  2.822  0.000
   185N    -0.21214 -0.47543   1.316  3.896  0.000
   186H     0.02684  0.08488   0.973  0.000  0.000
   187H     0.02353  0.08246   0.976  0.000  0.000
   188H     0.03618  0.09894   0.964  0.000  0.000
   189H     0.24240  0.41814   0.758  0.000  0.000
   190H     0.04569  0.10691   0.954  0.000  0.000
   191H     0.03625  0.09219   0.964  0.000  0.000
   192H     0.02610  0.08397   0.974  0.000  0.000
   193H     0.02242  0.08111   0.978  0.000  0.000
   194H     0.02559  0.08357   0.974  0.000  0.000
   195H     0.02690  0.08495   0.973  0.000  0.000
   196H     0.02372  0.08263   0.976  0.000  0.000
   197H     0.02585  0.08374   0.974  0.000  0.000
   198H     0.03650  0.09243   0.964  0.000  0.000
   199H     0.04469  0.10517   0.955  0.000  0.000
   200H     0.24216  0.41791   0.758  0.000  0.000
   201H     0.03721  0.10076   0.963  0.000  0.000
   202H     0.02228  0.08096   0.978  0.000  0.000
   203H     0.02511  0.08309   0.975  0.000  0.000
   204Co    0.32534  0.73976   0.323  0.972  7.380
   205C     0.01893  0.02593   1.081  2.900  0.000
   206C     0.06231  0.12813   1.116  2.822  0.000
   207C    -0.03611 -0.08165   1.082  2.954  0.000
   208C    -0.03525 -0.08149   1.078  2.957  0.000
   209C     0.05716  0.12008   1.104  2.839  0.000
   210N    -0.21242 -0.47436   1.317  3.895  0.000
   211C     0.01064  0.01608   1.084  2.905  0.000
   212C     0.01220  0.00370   1.087  2.901  0.000
   213C    -0.00744 -0.05672   1.081  2.926  0.000
   214C     0.00728  0.00376   1.088  2.905  0.000
   215C     0.23428  0.28929   1.195  2.571  0.000
   216O    -0.28053 -0.47712   1.681  4.600  0.000
   217O    -0.32797 -0.37787   1.628  4.700  0.000
   218C    -0.01677 -0.06843   1.087  2.930  0.000
   219C    -0.02318 -0.07878   1.087  2.936  0.000
   220C    -0.01423 -0.06735   1.088  2.926  0.000
   221C     0.05734  0.12129   1.102  2.841  0.000
   222C    -0.03710 -0.08302   1.077  2.960  0.000
   223C    -0.03754 -0.08306   1.084  2.954  0.000
   224N    -0.21204 -0.47575   1.316  3.896  0.000
   225C     0.06079  0.12566   1.117  2.822  0.000
   226C     0.01840  0.02542   1.081  2.900  0.000
   227C     0.06160  0.12736   1.115  2.823  0.000
   228C    -0.03726 -0.08279   1.081  2.956  0.000
   229C    -0.03635 -0.08260   1.078  2.959  0.000
   230C     0.05638  0.11934   1.104  2.840  0.000
   231N    -0.21276 -0.47483   1.317  3.896  0.000
   232C     0.01018  0.01559   1.085  2.905  0.000
   233C     0.01125  0.00270   1.086  2.903  0.000
   234C    -0.01404 -0.06719   1.088  2.926  0.000
   235C    -0.02207 -0.07764   1.088  2.934  0.000
   236C    -0.01440 -0.06601   1.090  2.924  0.000
   237C     0.00714  0.00363   1.088  2.905  0.000
   238C     0.23419  0.28921   1.194  2.571  0.000
   239O    -0.27779 -0.47458   1.680  4.598  0.000
   240O    -0.33107 -0.38082   1.628  4.703  0.000
   241C    -0.00970 -0.05902   1.079  2.931  0.000
   242C     0.05706  0.12086   1.102  2.841  0.000
   243C    -0.03687 -0.08283   1.077  2.960  0.000
   244C    -0.03720 -0.08273   1.084  2.953  0.000
   245C     0.06117  0.12616   1.117  2.822  0.000
   246N    -0.21197 -0.47551   1.316  3.896  0.000
   247H     0.02708  0.08515   0.973  0.000  0.000
   248H     0.02364  0.08256   0.976  0.000  0.000
   249H     0.03637  0.09908   0.964  0.000  0.000
   250H     0.24244  0.41819   0.758  0.000  0.000
   251H     0.04553  0.10675   0.954  0.000  0.000
   252H     0.03591  0.09185   0.964  0.000  0.000
   253H     0.02597  0.08382   0.974  0.000  0.000
   254H     0.02192  0.08058   0.978  0.000  0.000
   255H     0.02482  0.08281   0.975  0.000  0.000
   256H     0.02655  0.08456   0.973  0.000  0.000
   257H     0.02363  0.08256   0.976  0.000  0.000
   258H     0.02606  0.08397   0.974  0.000  0.000
   259H     0.03695  0.09289   0.963  0.000  0.000
   260H     0.04490  0.10538   0.955  0.000  0.000
   261H     0.24184  0.41758   0.758  0.000  0.000
   262H     0.03695  0.10053   0.963  0.000  0.000
   263H     0.02265  0.08134   0.977  0.000  0.000
   264H     0.02549  0.08347   0.975  0.000  0.000

Wiberg/Mayer (AO) data.
largest (>0.10) Wiberg bond orders for each atom

 ---------------------------------------------------------------------------
     #   Z sym  total        # sym  WBO       # sym  WBO       # sym  WBO
 ---------------------------------------------------------------------------
     1  27 Co   3.678 --     7 N    0.715    43 N    0.714    21 N    0.710
                            28 N    0.710
     2   6 C    3.840 --     3 C    1.394    42 C    1.392    44 H    0.997
     3   6 C    3.955 --     2 C    1.394     7 N    1.242     4 C    1.198
     4   6 C    3.855 --     5 C    1.645     3 C    1.198    45 H    0.994
     5   6 C    3.835 --     4 C    1.645     6 C    1.204    46 H    0.998
     6   6 C    3.932 --     8 C    1.362     7 N    1.250     5 C    1.204
     7   7 N    2.993 --     6 C    1.250     3 C    1.242     1 Co   0.715
     8   6 C    3.843 --    18 C    1.369     6 C    1.362     9 C    1.052
     9   6 C    3.895 --    10 C    1.439    17 C    1.418     8 C    1.052
    10   6 C    3.851 --     9 C    1.439    11 C    1.408    47 H    0.996
    11   6 C    3.909 --    10 C    1.408    15 C    1.400    12 C    1.035
    12   6 C    4.097 --    14 O    1.820    13 O    1.210    11 C    1.035
    13   8 O    2.367 --    12 C    1.210    48 H    0.944    14 O    0.184
    14   8 O    2.033 --    12 C    1.820    13 O    0.184
    15   6 C    3.887 --    16 C    1.454    11 C    1.400    49 H    0.987
    16   6 C    3.909 --    15 C    1.454    17 C    1.445    50 H    0.981
    17   6 C    3.869 --    16 C    1.445     9 C    1.418    51 H    0.990
    18   6 C    3.924 --     8 C    1.369    21 N    1.237    19 C    1.209
    19   6 C    3.832 --    20 C    1.631    18 C    1.209    52 H    0.998
    20   6 C    3.848 --    19 C    1.631    22 C    1.220    53 H    0.999
    21   7 N    2.999 --    22 C    1.267    18 C    1.237     1 Co   0.710
    22   6 C    3.932 --    23 C    1.303    21 N    1.267    20 C    1.220
    23   6 C    3.870 --    24 C    1.305    22 C    1.303   128 C    1.213
    24   6 C    3.932 --    23 C    1.305    28 N    1.266    25 C    1.219
    25   6 C    3.850 --    26 C    1.632    24 C    1.219    54 H    0.999
    26   6 C    3.832 --    25 C    1.632    27 C    1.209    55 H    0.998
    27   6 C    3.925 --    29 C    1.370    28 N    1.237    26 C    1.209
    28   7 N    2.999 --    24 C    1.266    27 C    1.237     1 Co   0.710
    29   6 C    3.842 --    27 C    1.370    39 C    1.362    30 C    1.051
    30   6 C    3.895 --    38 C    1.436    31 C    1.420    29 C    1.051
    31   6 C    3.869 --    32 C    1.444    30 C    1.420    56 H    0.990
    32   6 C    3.908 --    33 C    1.456    31 C    1.444    57 H    0.981
    33   6 C    3.891 --    32 C    1.456    34 C    1.401    58 H    0.987
    34   6 C    3.909 --    38 C    1.408    33 C    1.401    35 C    1.036
    35   6 C    4.097 --    37 O    1.817    36 O    1.213    34 C    1.036
    36   8 O    2.369 --    35 C    1.213    59 H    0.944    37 O    0.183
    37   8 O    2.031 --    35 C    1.817    36 O    0.183
    38   6 C    3.850 --    30 C    1.436    34 C    1.408    60 H    0.997
    39   6 C    3.932 --    29 C    1.362    43 N    1.249    40 C    1.204
    40   6 C    3.834 --    41 C    1.644    39 C    1.204    61 H    0.998
    41   6 C    3.855 --    40 C    1.644    42 C    1.198    62 H    0.994
    42   6 C    3.955 --     2 C    1.392    43 N    1.243    41 C    1.198
    43   7 N    2.992 --    39 C    1.249    42 C    1.243     1 Co   0.714
    44   1 H    1.035 --     2 C    0.997
    45   1 H    1.027 --     4 C    0.994
    46   1 H    1.042 --     5 C    0.998
    47   1 H    1.052 --    10 C    0.996
    48   1 H    0.980 --    13 O    0.944
    49   1 H    1.016 --    15 C    0.987
    50   1 H    1.029 --    16 C    0.981
    51   1 H    1.055 --    17 C    0.990
    52   1 H    1.042 --    19 C    0.998
    53   1 H    1.038 --    20 C    0.999
    54   1 H    1.038 --    25 C    0.999
    55   1 H    1.042 --    26 C    0.998
    56   1 H    1.055 --    31 C    0.990
    57   1 H    1.029 --    32 C    0.981
    58   1 H    1.026 --    33 C    0.987
    59   1 H    0.981 --    36 O    0.944
    60   1 H    1.043 --    38 C    0.997
    61   1 H    1.041 --    40 C    0.998
    62   1 H    1.027 --    41 C    0.994
    63  27 Co   3.662 --   105 N    0.712    69 N    0.712    83 N    0.708
                            90 N    0.707
    64   6 C    3.840 --   104 C    1.397    65 C    1.387   106 H    0.997
    65   6 C    3.954 --    64 C    1.387    69 N    1.250    66 C    1.199
    66   6 C    3.854 --    67 C    1.644    65 C    1.199   107 H    0.993
    67   6 C    3.834 --    66 C    1.644    68 C    1.202   108 H    0.998
    68   6 C    3.932 --    70 C    1.367    69 N    1.245    67 C    1.202
    69   7 N    2.993 --    65 C    1.250    68 C    1.245    63 Co   0.712
    70   6 C    3.842 --    68 C    1.367    80 C    1.362    71 C    1.051
    71   6 C    3.896 --    72 C    1.440    79 C    1.418    70 C    1.051
    72   6 C    3.851 --    71 C    1.440    73 C    1.408   109 H    0.996
    73   6 C    3.908 --    72 C    1.408    77 C    1.401    74 C    1.035
    74   6 C    4.097 --    76 O    1.820    75 O    1.210    73 C    1.035
    75   8 O    2.366 --    74 C    1.210   110 H    0.944    76 O    0.184
    76   8 O    2.033 --    74 C    1.820    75 O    0.184
    77   6 C    3.887 --    78 C    1.453    73 C    1.401   111 H    0.987
    78   6 C    3.909 --    77 C    1.453    79 C    1.446   112 H    0.982
    79   6 C    3.872 --    78 C    1.446    71 C    1.418   113 H    0.990
    80   6 C    3.923 --    70 C    1.362    83 N    1.244    81 C    1.211
    81   6 C    3.832 --    82 C    1.631    80 C    1.211   114 H    0.998
    82   6 C    3.851 --    81 C    1.631    84 C    1.218   115 H    0.999
    83   7 N    2.999 --    84 C    1.263    80 C    1.244    63 Co   0.708
    84   6 C    3.932 --    85 C    1.307    83 N    1.263    82 C    1.218
    85   6 C    3.870 --    84 C    1.307    86 C    1.298   142 C    1.214
    86   6 C    3.932 --    85 C    1.298    90 N    1.275    87 C    1.220
    87   6 C    3.847 --    88 C    1.632    86 C    1.220   116 H    0.999
    88   6 C    3.832 --    87 C    1.632    89 C    1.208   117 H    0.998
    89   6 C    3.925 --    91 C    1.376    90 N    1.232    88 C    1.208
    90   7 N    3.000 --    86 C    1.275    89 C    1.232    63 Co   0.707
    91   6 C    3.842 --    89 C    1.376   101 C    1.355    92 C    1.050
    92   6 C    3.895 --   100 C    1.437    93 C    1.421    91 C    1.050
    93   6 C    3.869 --    94 C    1.443    92 C    1.421   118 H    0.990
    94   6 C    3.907 --    95 C    1.456    93 C    1.443   119 H    0.981
    95   6 C    3.891 --    94 C    1.456    96 C    1.401   120 H    0.987
    96   6 C    3.910 --   100 C    1.409    95 C    1.401    97 C    1.036
    97   6 C    4.098 --    99 O    1.817    98 O    1.213    96 C    1.036
    98   8 O    2.369 --    97 C    1.213   121 H    0.943    99 O    0.183
    99   8 O    2.031 --    97 C    1.817    98 O    0.183
   100   6 C    3.851 --    92 C    1.437    96 C    1.409   122 H    0.996
   101   6 C    3.931 --    91 C    1.355   105 N    1.257   102 C    1.206
   102   6 C    3.834 --   103 C    1.643   101 C    1.206   123 H    0.999
   103   6 C    3.858 --   102 C    1.643   104 C    1.197   124 H    0.994
   104   6 C    3.955 --    64 C    1.397   105 N    1.239   103 C    1.197
   105   7 N    2.993 --   101 C    1.257   104 C    1.239    63 Co   0.712
   106   1 H    1.036 --    64 C    0.997
   107   1 H    1.027 --    66 C    0.993
   108   1 H    1.042 --    67 C    0.998
   109   1 H    1.052 --    72 C    0.996
   110   1 H    0.980 --    75 O    0.944
   111   1 H    1.016 --    77 C    0.987
   112   1 H    1.030 --    78 C    0.982
   113   1 H    1.055 --    79 C    0.990
   114   1 H    1.041 --    81 C    0.998
   115   1 H    1.039 --    82 C    0.999
   116   1 H    1.037 --    87 C    0.999
   117   1 H    1.042 --    88 C    0.998
   118   1 H    1.055 --    93 C    0.990
   119   1 H    1.029 --    94 C    0.981
   120   1 H    1.026 --    95 C    0.987
   121   1 H    0.981 --    98 O    0.943
   122   1 H    1.042 --   100 C    0.996
   123   1 H    1.040 --   102 C    0.999
   124   1 H    1.027 --   103 C    0.994
   125   6 C    3.845 --   126 C    2.385   129 C    1.353   128 C    0.177
   126   6 C    3.843 --   125 C    2.385   127 C    1.351   130 C    0.177
   127   6 C    3.832 --   128 C    2.486   126 C    1.351
   128   6 C    3.771 --   127 C    2.486    23 C    1.213   125 C    0.177
   129   6 C    3.828 --   130 C    2.482   125 C    1.353
   130   6 C    3.774 --   129 C    2.482   144 C    1.217   126 C    0.177
   131   6 C    3.842 --   132 C    2.379   135 C    1.355   134 C    0.177
   132   6 C    3.842 --   131 C    2.379   133 C    1.355   136 C    0.177
   133   6 C    3.828 --   134 C    2.479   132 C    1.355
   134   6 C    3.772 --   133 C    2.479   165 C    1.219   131 C    0.177
   135   6 C    3.828 --   136 C    2.479   131 C    1.355
   136   6 C    3.772 --   135 C    2.479   205 C    1.219   132 C    0.177
   137   6 C    3.843 --   138 C    2.384   141 C    1.352   140 C    0.177
   138   6 C    3.844 --   137 C    2.384   139 C    1.353   142 C    0.177
   139   6 C    3.828 --   140 C    2.482   138 C    1.353
   140   6 C    3.774 --   139 C    2.482   226 C    1.218   137 C    0.177
   141   6 C    3.831 --   142 C    2.485   137 C    1.352
   142   6 C    3.772 --   141 C    2.485    85 C    1.214   138 C    0.177
   143  27 Co   3.627 --   163 N    0.706   149 N    0.705   185 N    0.705
                           170 N    0.705
   144   6 C    3.862 --   184 C    1.303   145 C    1.294   130 C    1.217
   145   6 C    3.932 --   144 C    1.294   149 N    1.277   146 C    1.221
   146   6 C    3.845 --   147 C    1.630   145 C    1.221   186 H    0.998
   147   6 C    3.830 --   146 C    1.630   148 C    1.209   187 H    0.997
   148   6 C    3.920 --   150 C    1.373   149 N    1.232   147 C    1.209
   149   7 N    2.994 --   145 C    1.277   148 C    1.232   143 Co   0.705
   150   6 C    3.839 --   148 C    1.373   160 C    1.356   151 C    1.052
   151   6 C    3.895 --   152 C    1.440   159 C    1.418   150 C    1.052
   152   6 C    3.850 --   151 C    1.440   153 C    1.408   188 H    0.996
   153   6 C    3.908 --   152 C    1.408   157 C    1.401   154 C    1.034
   154   6 C    4.097 --   156 O    1.821   155 O    1.211   153 C    1.034
   155   8 O    2.367 --   154 C    1.211   189 H    0.943   156 O    0.184
   156   8 O    2.034 --   154 C    1.821   155 O    0.184
   157   6 C    3.887 --   158 C    1.453   153 C    1.401   190 H    0.987
   158   6 C    3.910 --   157 C    1.453   159 C    1.446   191 H    0.982
   159   6 C    3.872 --   158 C    1.446   151 C    1.418   192 H    0.990
   160   6 C    3.920 --   150 C    1.356   163 N    1.246   161 C    1.214
   161   6 C    3.832 --   162 C    1.628   160 C    1.214   193 H    0.998
   162   6 C    3.849 --   161 C    1.628   164 C    1.220   194 H    0.999
   163   7 N    2.992 --   164 C    1.264   160 C    1.246   143 Co   0.706
   164   6 C    3.931 --   165 C    1.303   163 N    1.264   162 C    1.220
   165   6 C    3.861 --   164 C    1.303   166 C    1.293   134 C    1.219
   166   6 C    3.932 --   165 C    1.293   170 N    1.278   167 C    1.221
   167   6 C    3.845 --   168 C    1.630   166 C    1.221   195 H    0.998
   168   6 C    3.829 --   167 C    1.630   169 C    1.210   196 H    0.998
   169   6 C    3.920 --   171 C    1.375   170 N    1.231   168 C    1.210
   170   7 N    2.993 --   166 C    1.278   169 C    1.231   143 Co   0.705
   171   6 C    3.838 --   169 C    1.375   181 C    1.355   172 C    1.051
   172   6 C    3.895 --   180 C    1.438   173 C    1.419   171 C    1.051
   173   6 C    3.872 --   174 C    1.445   172 C    1.419   197 H    0.990
   174   6 C    3.909 --   175 C    1.455   173 C    1.445   198 H    0.982
   175   6 C    3.891 --   174 C    1.455   176 C    1.402   199 H    0.987
   176   6 C    3.909 --   180 C    1.408   175 C    1.402   177 C    1.035
   177   6 C    4.097 --   179 O    1.818   178 O    1.214   176 C    1.035
   178   8 O    2.370 --   177 C    1.214   200 H    0.943   179 O    0.184
   179   8 O    2.030 --   177 C    1.818   178 O    0.184
   180   6 C    3.847 --   172 C    1.438   176 C    1.408   201 H    0.996
   181   6 C    3.920 --   171 C    1.355   185 N    1.247   182 C    1.214
   182   6 C    3.832 --   183 C    1.627   181 C    1.214   202 H    0.998
   183   6 C    3.849 --   182 C    1.627   184 C    1.220   203 H    0.999
   184   6 C    3.931 --   144 C    1.303   185 N    1.263   183 C    1.220
   185   7 N    2.992 --   184 C    1.263   181 C    1.247   143 Co   0.705
   186   1 H    1.037 --   146 C    0.998
   187   1 H    1.041 --   147 C    0.997
   188   1 H    1.052 --   152 C    0.996
   189   1 H    0.979 --   155 O    0.943
   190   1 H    1.016 --   157 C    0.987
   191   1 H    1.029 --   158 C    0.982
   192   1 H    1.054 --   159 C    0.990
   193   1 H    1.041 --   161 C    0.998
   194   1 H    1.038 --   162 C    0.999
   195   1 H    1.036 --   167 C    0.998
   196   1 H    1.039 --   168 C    0.998
   197   1 H    1.054 --   173 C    0.990
   198   1 H    1.030 --   174 C    0.982
   199   1 H    1.026 --   175 C    0.987
   200   1 H    0.980 --   178 O    0.943
   201   1 H    1.043 --   180 C    0.996
   202   1 H    1.041 --   182 C    0.998
   203   1 H    1.038 --   183 C    0.999
   204  27 Co   3.630 --   246 N    0.706   224 N    0.706   210 N    0.705
                           231 N    0.704
   205   6 C    3.862 --   245 C    1.302   206 C    1.294   136 C    1.219
   206   6 C    3.932 --   205 C    1.294   210 N    1.278   207 C    1.220
   207   6 C    3.845 --   208 C    1.631   206 C    1.220   247 H    0.998
   208   6 C    3.830 --   207 C    1.631   209 C    1.209   248 H    0.997
   209   6 C    3.920 --   211 C    1.376   210 N    1.231   208 C    1.209
   210   7 N    2.994 --   206 C    1.278   209 C    1.231   204 Co   0.705
   211   6 C    3.838 --   209 C    1.376   221 C    1.354   212 C    1.051
   212   6 C    3.895 --   213 C    1.440   220 C    1.418   211 C    1.051
   213   6 C    3.850 --   212 C    1.440   214 C    1.408   249 H    0.996
   214   6 C    3.908 --   213 C    1.408   218 C    1.401   215 C    1.034
   215   6 C    4.097 --   217 O    1.821   216 O    1.211   214 C    1.034
   216   8 O    2.367 --   215 C    1.211   250 H    0.943   217 O    0.184
   217   8 O    2.035 --   215 C    1.821   216 O    0.184
   218   6 C    3.887 --   219 C    1.453   214 C    1.401   251 H    0.987
   219   6 C    3.910 --   218 C    1.453   220 C    1.446   252 H    0.982
   220   6 C    3.873 --   219 C    1.446   212 C    1.418   253 H    0.990
   221   6 C    3.919 --   211 C    1.354   224 N    1.248   222 C    1.214
   222   6 C    3.832 --   223 C    1.627   221 C    1.214   254 H    0.999
   223   6 C    3.849 --   222 C    1.627   225 C    1.220   255 H    0.999
   224   7 N    2.992 --   225 C    1.262   221 C    1.248   204 Co   0.706
   225   6 C    3.931 --   226 C    1.304   224 N    1.262   223 C    1.220
   226   6 C    3.862 --   225 C    1.304   227 C    1.293   140 C    1.218
   227   6 C    3.932 --   226 C    1.293   231 N    1.278   228 C    1.222
   228   6 C    3.845 --   229 C    1.629   227 C    1.222   256 H    0.998
   229   6 C    3.829 --   228 C    1.629   230 C    1.210   257 H    0.998
   230   6 C    3.920 --   232 C    1.373   231 N    1.232   229 C    1.210
   231   7 N    2.993 --   227 C    1.278   230 C    1.232   204 Co   0.704
   232   6 C    3.838 --   230 C    1.373   242 C    1.356   233 C    1.052
   233   6 C    3.895 --   241 C    1.438   234 C    1.418   232 C    1.052
   234   6 C    3.872 --   235 C    1.445   233 C    1.418   258 H    0.990
   235   6 C    3.909 --   236 C    1.455   234 C    1.445   259 H    0.981
   236   6 C    3.891 --   235 C    1.455   237 C    1.402   260 H    0.987
   237   6 C    3.909 --   241 C    1.408   236 C    1.402   238 C    1.035
   238   6 C    4.097 --   240 O    1.818   239 O    1.213   237 C    1.035
   239   8 O    2.370 --   238 C    1.213   261 H    0.943   240 O    0.184
   240   8 O    2.031 --   238 C    1.818   239 O    0.184
   241   6 C    3.846 --   233 C    1.438   237 C    1.408   262 H    0.997
   242   6 C    3.920 --   232 C    1.356   246 N    1.246   243 C    1.214
   243   6 C    3.832 --   244 C    1.628   242 C    1.214   263 H    0.998
   244   6 C    3.849 --   243 C    1.628   245 C    1.220   264 H    0.999
   245   6 C    3.931 --   205 C    1.302   246 N    1.264   244 C    1.220
   246   7 N    2.992 --   245 C    1.264   242 C    1.246   204 Co   0.706
   247   1 H    1.037 --   207 C    0.998
   248   1 H    1.041 --   208 C    0.997
   249   1 H    1.052 --   213 C    0.996
   250   1 H    0.979 --   216 O    0.943
   251   1 H    1.016 --   218 C    0.987
   252   1 H    1.030 --   219 C    0.982
   253   1 H    1.054 --   220 C    0.990
   254   1 H    1.041 --   222 C    0.999
   255   1 H    1.039 --   223 C    0.999
   256   1 H    1.036 --   228 C    0.998
   257   1 H    1.040 --   229 C    0.998
   258   1 H    1.054 --   234 C    0.990
   259   1 H    1.030 --   235 C    0.981
   260   1 H    1.026 --   236 C    0.987
   261   1 H    0.980 --   239 O    0.943
   262   1 H    1.043 --   241 C    0.997
   263   1 H    1.041 --   243 C    0.998
   264   1 H    1.038 --   244 C    0.999
 ---------------------------------------------------------------------------

Topologies differ in total number of bonds
Writing topology from bond orders to xtbtopo.mol

 dipole moment from electron density (au)
     X       Y       Z   
-126.9251  -1.4926  -2.0574  total (Debye):  322.676


           -------------------------------------------------
          | TOTAL ENERGY             -562.667193190937 Eh   |
          | GRADIENT NORM               0.119493960821 Eh/α |
          | HOMO-LUMO GAP               0.001921431419 eV   |
           -------------------------------------------------
########################################################################
[WARNING] Runtime exception occurred
-1- restart_readRestart: Dimension missmatch in restart file.
########################################################################

------------------------------------------------------------------------
 * finished run on 2022/07/30 at 00:26:31.103     
------------------------------------------------------------------------
 total:
 * wall-time:     0 d,  0 h,  1 min,  4.313 sec
 *  cpu-time:     0 d,  0 h,  1 min,  3.895 sec
 * ratio c/w:     0.994 speedup
 SCF:
 * wall-time:     0 d,  0 h,  1 min,  3.545 sec
 *  cpu-time:     0 d,  0 h,  1 min,  3.155 sec
 * ratio c/w:     0.994 speedup

