270
 energy: -535.066024607516 gnorm: 1.950285376363 xtb: 6.5.1 (b24c23e)
Fe          41.57971600000000       -0.05625600000000       -0.02761200000000
C           38.24657600000000        0.09475600000000        0.07879800000000
C           38.91338900000000        1.25170100000000        0.05739800000000
C           38.26501699999999        2.55732000000000        0.05619400000000
C           39.20865799999999        3.47939000000000        0.04823300000000
C           40.51380500000000        2.80434000000000        0.04616500000000
N           40.33382200000000        1.38811500000000        0.05120000000000
C           41.70775500000000        3.42923200000000        0.07608200000000
C           41.74527899999999        4.90793500000000        0.08359700000000
C           41.53593900000000        5.62321000000000       -1.10337700000000
C           41.55759400000000        7.02154900000000       -1.10044000000000
O           41.34331700000000        7.70272700000000       -2.29882800000000
C           41.79065800000000        7.71720800000000        0.09971200000000
O           41.80628600000000        9.11274100000000        0.09564600000000
C           42.00443299999999        7.00119400000000        1.29180400000000
O           42.23727900000000        7.68389200000000        2.48444500000000
C           41.98195700000000        5.59996400000000        1.27841100000000
C           43.00596200000000        2.70512700000000        0.11443700000000
C           44.30523599999999        3.37465300000000        0.24586100000000
C           45.23956100000000        2.44748300000000        0.23120700000000
N           43.14058600000000        1.41735200000000        0.01385200000000
C           44.54645599999999        1.17358100000000        0.07967900000000
C           45.14166500000000       -0.02712700000000       -0.02871800000000
C           44.38870600000000       -1.29265800000000       -0.20886900000000
C           44.95399499999999       -2.45460000000000       -0.51399600000000
C           43.90649900000000       -3.45366000000000       -0.54419400000000
C           42.76480999999999       -2.83949300000000       -0.25813800000000
N           42.97856100000000       -1.44277500000000       -0.03184800000000
C           41.45569900000000       -3.53320700000000       -0.13966800000000
C           41.43688400000000       -5.01198800000000       -0.15827400000000
C           41.58351300000000       -5.72999000000000        1.03513400000000
C           41.56222899999999       -7.12845200000000        1.02627600000000
O           41.70395799999999       -7.81373600000000        2.23300800000000
C           41.39890200000000       -7.82041800000000       -0.18770900000000
O           41.38207200000000       -9.21585200000000       -0.18872500000000
C           41.25699800000000       -7.10063700000000       -1.38825300000000
O           41.09955799999999       -7.78004100000000       -2.59546200000000
C           41.27517100000000       -5.69932500000000       -1.36823900000000
C           40.29302600000000       -2.86803100000000       -0.01757400000000
C           38.96909600000000       -3.47620200000000        0.10114100000000
C           38.11008500000000       -2.47755900000000        0.15287600000000
C           38.87619500000000       -1.23492800000000        0.07288300000000
N           40.15092799999999       -1.44968000000000       -0.02756200000000
H           37.16369300000000        0.12754000000000        0.10341800000000
H           37.20038999999999        2.75308000000000        0.06530700000000
H           39.02497700000000        4.54604000000000        0.05479000000000
H           41.35220799999999        5.09288800000000       -2.03006900000000
H           41.34829100000000        8.71416600000000       -2.35180300000000
H           41.95666000000000        9.65299600000000        0.93865300000000
H           42.39359200000000        7.19156700000000        3.35636600000000
H           42.14468300000000        5.04936500000000        2.19707000000000
H           44.48880199999999        4.43721200000000        0.33577500000000
H           46.30334900000000        2.63065900000000        0.30596200000000
H           46.00364800000000       -2.63950800000000       -0.69596900000000
H           44.04139299999999       -4.50842500000000       -0.74713700000000
H           41.71068900000000       -5.20223500000000        1.97258300000000
H           41.68564199999999       -8.82480300000000        2.28337500000000
H           41.26817900000000       -9.75397000000000       -1.03915200000000
H           40.99972000000000       -7.28574100000000       -3.47488000000000
H           41.16483100000000       -5.14584200000000       -2.29328300000000
H           38.71720400000000       -4.52836100000000        0.13563500000000
H           37.03508599999999       -2.57536200000000        0.23632100000000
Fe          98.60482900000000        0.00168900000000       -0.02431700000000
C          101.93796900000000       -0.16041100000000        0.06429000000000
C          101.27115700000000       -1.30747500000000       -0.08810600000000
C          101.91952800000000       -2.60454300000000       -0.23728900000000
C          100.97588700000000       -3.51976900000000       -0.34971100000000
C           99.67074099999999       -2.84883500000000       -0.27525200000000
N           99.85072300000000       -1.44230700000000       -0.10972600000000
C           98.47679099999999       -3.47309100000000       -0.31635600000000
C           98.43926600000000       -4.94311600000000       -0.47649400000000
C           98.64860600000000       -5.51924300000000       -1.73689200000000
C           98.62695199999999       -6.90890400000000       -1.89246900000000
O           98.84122799999999       -7.44986000000000       -3.16034300000000
C           98.39388700000001       -7.73611100000000       -0.77890200000000
O           98.37825900000000       -9.12219000000000       -0.94111900000000
C           98.18011199999999       -7.15983100000000        0.48666500000000
O           97.94726699999998       -7.97331000000000        1.59423900000000
C           98.20258900000000       -5.76611200000000        0.63218100000000
C           97.17858300000000       -2.75799900000000       -0.19617400000000
C           95.87931000000000       -3.43810700000000       -0.14148500000000
C           94.94498400000001       -2.51525100000000       -0.05095400000000
N           97.04395999999998       -1.46712300000000       -0.15014800000000
C           95.63808899999998       -1.23238400000000       -0.05711500000000
C           95.04287999999998       -0.02712700000000       -0.02871800000000
C           95.79583900000000        1.25066800000000       -0.06426500000000
C           95.23054999999999        2.43970600000000       -0.23572600000000
C           96.27804599999999        3.43575100000000       -0.15249000000000
C           97.41973500000000        2.79311800000000        0.06211000000000
N           97.20598500000000        1.37975200000000        0.12862900000000
C           98.72884600000000        3.46893400000000        0.25844500000000
C           98.74766200000001        4.94029400000000        0.40757200000000
C           98.60103199999999        5.51840200000000        1.67467200000000
C           98.62231600000000        6.90885500000000        1.82438100000000
O           98.48058700000000        7.45294600000000        3.10101000000000
C           98.78564299999999        7.73396200000000        0.69665100000000
O           98.80247400000000        9.12051800000000        0.85380700000000
C           98.92754699999999        7.15489600000000       -0.57774100000000
O           99.08498700000000        7.96675300000000       -1.70016300000000
C           98.90937400000000        5.76034600000000       -0.71668800000000
C           99.89151999999999        2.79420600000000        0.30435800000000
C          101.21544999999999        3.38500200000000        0.49124200000000
C          102.07445999999999        2.38693000000000        0.42945100000000
C          101.30835000000000        1.16137400000000        0.20912700000000
N          100.03361700000001        1.38612800000000        0.13367100000000
H          103.02085299999999       -0.19577500000000        0.08503500000000
H          102.98415500000000       -2.80007400000000       -0.25042300000000
H          101.15956799999999       -4.58028800000000       -0.46409600000000
H           98.83233700000000       -4.88730200000000       -2.59750200000000
H           98.83625499999999       -8.44877700000000       -3.32761900000000
H           98.22788499999999       -9.75451500000000       -0.16478100000000
H           97.79095400000000       -7.58298600000000        2.51634400000000
H           98.03986300000000       -5.32318700000000        1.60732800000000
H           95.69574400000000       -4.50401000000000       -0.17258700000000
H           93.88119600000000       -2.70572000000000        0.00255700000000
H           94.18089800000000        2.64404900000000       -0.39556800000000
H           96.14315200000000        4.50672200000000       -0.23457200000000
H           98.47385699999998        4.88779200000000        2.54626100000000
H           98.49890400000000        8.45178800000000        3.26565300000000
H           98.91636600000000        9.75156000000000        0.06985400000000
H           99.18482500000000        7.57531700000000       -2.62994000000000
H           99.01971399999999        5.31528000000000       -1.69850600000000
H          101.46734199999999        4.42647100000000        0.64477000000000
H          103.14945899999998        2.47464500000000        0.52344400000000
C           47.49267699999999       -0.01243700000000       -0.01844200000000
C           48.95090400000000       -0.03427300000000       -0.03631500000000
C           50.08483199999999       -0.05502700000000       -0.03780600000000
C           51.44621299999999       -0.06761700000000       -0.03999700000000
C           52.72043200000000       -0.05731100000000       -0.04476200000000
C           53.90889499999999       -0.03851200000000       -0.05091800000000
C           55.26125500000000       -0.01372800000000       -0.03505000000000
C           56.36152300000000       -0.01243700000000       -0.01844200000000
C           65.59583200000000       -0.01243700000000       -0.01844200000000
C           67.05405800000000       -0.03427300000000       -0.03631500000000
C           68.18798600000000       -0.05502700000000       -0.03780600000000
C           69.54936800000000       -0.06761700000000       -0.03999700000000
C           70.82358700000000       -0.05731100000000       -0.04476200000000
C           72.01204900000000       -0.03851200000000       -0.05091800000000
C           73.36441000000001       -0.01372800000000       -0.03505000000000
C           74.46467699999999       -0.01243700000000       -0.01844200000000
C           83.69898600000000       -0.01243700000000       -0.01844200000000
C           85.15721200000000       -0.03427300000000       -0.03631500000000
C           86.29113999999998       -0.05502700000000       -0.03780600000000
C           87.65252200000000       -0.06761700000000       -0.03999700000000
C           88.92674099999999       -0.05731100000000       -0.04476200000000
C           90.11520299999998       -0.03851200000000       -0.05091800000000
C           91.46756399999998       -0.01372800000000       -0.03505000000000
C           92.56783099999998       -0.01243700000000       -0.01844200000000
Fe          60.99929000000000       -0.05485400000000       -0.06391100000000
C           57.58965900000000        0.03001800000000        0.03281600000000
C           58.24612599999999        1.19865600000000        0.15238700000000
C           57.60453600000000        2.49771200000000        0.36481800000000
C           58.54259499999999        3.42412400000000        0.38706800000000
C           59.84140800000000        2.77263200000000        0.18976900000000
N           59.66347700000000        1.36102300000000        0.04834900000000
C           61.02636199999999        3.41685500000000        0.13773200000000
C           61.05608200000000        4.89251900000000        0.24100500000000
C           61.51857900000000        5.50547500000000        1.41443500000000
C           61.56121300000000        6.90262900000000        1.51322500000000
O           62.01415200000000        7.51320900000000        2.68314900000000
C           61.14620900000000        7.69346600000000        0.43238200000000
O           61.19872900000000        9.08285800000000        0.54814100000000
C           60.68382400000000        7.08247300000000       -0.74871300000000
O           60.27236199999999        7.86550800000000       -1.82614500000000
C           60.63971300000000        5.68437200000000       -0.83902600000000
C           62.32742200000000        2.71841600000000       -0.01550900000000
C           63.60080100000000        3.41012800000000       -0.25057300000000
C           64.55457699999999        2.50130900000000       -0.28005300000000
N           62.49354200000000        1.43655500000000        0.09038000000000
C           63.89593199999999        1.21901400000000       -0.06815400000000
C           64.51097799999999        0.03001800000000        0.03281600000000
C           63.76203000000000       -1.22882200000000        0.23120500000000
C           64.30021000000001       -2.36039300000000        0.66757600000000
C           63.26774899999999       -3.37734900000000        0.60845600000000
C           62.16950499999999       -2.79756400000000        0.13775800000000
N           62.39118800000000       -1.41231900000000       -0.12185400000000
C           60.91080800000000       -3.51598800000000       -0.17446000000000
C           60.97273400000000       -4.98086200000000       -0.39739700000000
C           61.70751000000000       -5.49492400000000       -1.47274400000000
C           61.77888399999999       -6.87359200000000       -1.68814200000000
O           62.51012399999999       -7.34374500000000       -2.77962100000000
C           61.12017500000000       -7.76231100000000       -0.81629300000000
O           61.21443500000000       -9.13336000000000       -1.06962600000000
C           60.38799399999999       -7.24584500000000        0.28136600000000
O           59.71625499999999       -8.06313800000000        1.19397200000000
C           60.32390699999999       -5.86191600000000        0.47881400000000
C           59.73449500000000       -2.86751900000000       -0.27806400000000
C           58.45307300000000       -3.46942300000000       -0.63176500000000
C           57.56381399999999       -2.49910500000000       -0.57377500000000
C           58.26588500000000       -1.26985600000000       -0.18881300000000
N           59.53499699999999       -1.47784400000000       -0.01636800000000
H           56.54813500000000        2.69637900000000        0.48973100000000
H           58.35773500000000        4.48006800000000        0.53499500000000
H           61.84382099999999        4.89783300000000        2.25079200000000
H           62.30490900000000        6.96875500000000        3.49135300000000
H           60.90611900000000        9.69784800000000       -0.20505000000000
H           59.91252200000000        7.45128800000000       -2.67847000000000
H           60.28599200000000        5.21440800000000       -1.75040500000000
H           63.75229800000000        4.47434900000000       -0.37619100000000
H           65.60797300000000        2.69931500000000       -0.42967100000000
H           65.32526700000000       -2.51178400000000        0.98020200000000
H           63.38503999999999       -4.42219700000000        0.86537900000000
H           62.22081700000000       -4.82235800000000       -2.15064300000000
H           62.59308100000000       -8.33138300000000       -2.99032200000000
H           60.76437499999999       -9.84686000000000       -0.51252400000000
H           59.70733799999999       -9.07161300000000        1.15128400000000
H           59.76763299999999       -5.47111400000000        1.32300600000000
H           58.24586300000000       -4.49722800000000       -0.89851500000000
H           56.50891300000000       -2.61331200000000       -0.78723800000000
Fe          79.10244400000001       -0.05485400000000       -0.06391100000000
C           75.69281400000000        0.03001800000000        0.03281600000000
C           76.34927999999999        1.19865600000000        0.15238700000000
C           75.70769099999998        2.49771200000000        0.36481800000000
C           76.64575000000001        3.42412400000000        0.38706800000000
C           77.94456300000000        2.77263200000000        0.18976900000000
N           77.76663099999999        1.36102300000000        0.04834900000000
C           79.12951700000001        3.41685500000000        0.13773200000000
C           79.15923700000000        4.89251900000000        0.24100500000000
C           79.62173300000001        5.50547500000000        1.41443500000000
C           79.66436799999998        6.90262900000000        1.51322500000000
O           80.11730600000000        7.51320900000000        2.68314900000000
C           79.24936300000000        7.69346600000000        0.43238200000000
O           79.30188300000000        9.08285800000000        0.54814100000000
C           78.78697800000000        7.08247300000000       -0.74871300000000
O           78.37551600000000        7.86550800000000       -1.82614500000000
C           78.74286699999999        5.68437200000000       -0.83902600000000
C           80.43057600000000        2.71841600000000       -0.01550900000000
C           81.70395499999998        3.41012800000000       -0.25057300000000
C           82.65773100000000        2.50130900000000       -0.28005300000000
N           80.59669599999999        1.43655500000000        0.09038000000000
C           81.99908600000001        1.21901400000000       -0.06815400000000
C           82.61413300000000        0.03001800000000        0.03281600000000
C           81.86518400000000       -1.22882200000000        0.23120500000000
C           82.40336399999998       -2.36039300000000        0.66757600000000
C           81.37090300000000       -3.37734900000000        0.60845600000000
C           80.27266000000000       -2.79756400000000        0.13775800000000
N           80.49434200000000       -1.41231900000000       -0.12185400000000
C           79.01396200000001       -3.51598800000000       -0.17446000000000
C           79.07588899999999       -4.98086200000000       -0.39739700000000
C           79.81066500000000       -5.49492400000000       -1.47274400000000
C           79.88203799999998       -6.87359200000000       -1.68814200000000
O           80.61327799999999       -7.34374500000000       -2.77962100000000
C           79.22332900000001       -7.76231100000000       -0.81629300000000
O           79.31758900000000       -9.13336000000000       -1.06962600000000
C           78.49114800000000       -7.24584500000000        0.28136600000000
O           77.81940899999999       -8.06313800000000        1.19397200000000
C           78.42706099999999       -5.86191600000000        0.47881400000000
C           77.83764900000000       -2.86751900000000       -0.27806400000000
C           76.55622699999999       -3.46942300000000       -0.63176500000000
C           75.66696899999999       -2.49910500000000       -0.57377500000000
C           76.36903899999999       -1.26985600000000       -0.18881300000000
N           77.63815099999999       -1.47784400000000       -0.01636800000000
H           74.65128899999999        2.69637900000000        0.48973100000000
H           76.46088899999999        4.48006800000000        0.53499500000000
H           79.94697499999999        4.89783300000000        2.25079200000000
H           80.40806300000000        6.96875500000000        3.49135300000000
H           79.00927299999998        9.69784800000000       -0.20505000000000
H           78.01567600000000        7.45128800000000       -2.67847000000000
H           78.38914600000000        5.21440800000000       -1.75040500000000
H           81.85545200000000        4.47434900000000       -0.37619100000000
H           83.71112799999999        2.69931500000000       -0.42967100000000
H           83.42842100000000       -2.51178400000000        0.98020200000000
H           81.48819399999999       -4.42219700000000        0.86537900000000
H           80.32397099999999       -4.82235800000000       -2.15064300000000
H           80.69623500000000       -8.33138300000000       -2.99032200000000
H           78.86753000000000       -9.84686000000000       -0.51252400000000
H           77.81049200000000       -9.07161300000000        1.15128400000000
H           77.87078800000000       -5.47111400000000        1.32300600000000
H           76.34901699999999       -4.49722800000000       -0.89851500000000
H           74.61206700000000       -2.61331200000000       -0.78723800000000
270
 energy: -535.758558031220 gnorm: 0.776354769356 xtb: 6.5.1 (b24c23e)
Fe          41.58808382369874       -0.05251357085767       -0.02629116212794
C           38.24736503069675        0.08308325771134        0.07897809626512
C           38.91894603453753        1.25290286407065        0.05725083465921
C           38.26413219049275        2.55248166320274        0.05623839810742
C           39.21532806829833        3.48087823804114        0.04816955675835
C           40.51257672257764        2.79778095546278        0.04575942463154
N           40.32544743920689        1.39360344879143        0.05075036913074
C           41.71854369081716        3.42613690119269        0.07636868701485
C           41.74692957327188        4.91131252003069        0.08296283263307
C           41.53577926136829        5.62712150566576       -1.10250815740240
C           41.55755090932436        7.02934228637028       -1.10067320629409
O           41.34370654017051        7.70309382820601       -2.29659040072055
C           41.79189057272090        7.72255371862728        0.10634680069229
O           41.80619450199892        9.11425683795411        0.09535233436712
C           42.00534537585504        6.99915485428772        1.29670869470023
O           42.23728660304300        7.68443266443935        2.48486982889135
C           41.98221720159928        5.60115401268751        1.27711401664498
C           43.00019067053398        2.71498195485012        0.11469762250250
C           44.29688784925969        3.38084947494529        0.24540548108945
C           45.24050771976886        2.44252407992403        0.23114969813759
N           43.14394817890183        1.41095415391963        0.01419537416937
C           44.55299024154036        1.17107509871724        0.07963720879426
C           45.14184025726541       -0.03621652297380       -0.03040356599541
C           44.38760426035871       -1.27940581490367       -0.20443076408116
C           44.95538165733451       -2.46918416194214       -0.51649995356410
C           43.92066178712762       -3.45479762921945       -0.54574309800285
C           42.75453303860022       -2.83037876155088       -0.25367609611923
N           42.97798972171830       -1.44273190425314       -0.03474925890383
C           41.46471285430370       -3.52725137568040       -0.13993048009245
C           41.43978988901311       -5.01450396845078       -0.15808087013299
C           41.58348367825693       -5.73380747109594        1.03437587881506
C           41.56196170050187       -7.13623654595624        1.02648053023326
O           41.70356354412461       -7.81400253597547        2.23070823555895
C           41.39808244309168       -7.82570972545221       -0.19442118798945
O           41.38202927688422       -9.21736850655173       -0.18844041682034
C           41.25641762955782       -7.09848755979184       -1.39314994639509
O           41.09943293285728       -7.78044848450512       -2.59579789059175
C           41.27541944328014       -5.70014863995179       -1.36696108109317
C           40.29252192072754       -2.86554150861500       -0.01742996433736
C           38.97481424785055       -3.47686815331793        0.10069707371481
C           38.10481466016522       -2.46989494550388        0.15294985595301
C           38.86467768214550       -1.22745130328471        0.07318569765155
N           40.15449561846264       -1.45304665005878       -0.02683959186044
H           37.16398203452848        0.12541485354659        0.10351722970272
H           37.20051728908123        2.74965709071177        0.06527631754728
H           39.02918953854131        4.54617746100400        0.05462535123908
H           41.35245188573527        5.09407991059153       -2.02950137909607
H           41.34974448813394        8.70203620411395       -2.34320140404226
H           41.95550965702877        9.63957037128103        0.93236828411656
H           42.39089516226505        7.19241072914977        3.34187729644885
H           42.14459937986660        5.04973712027036        2.19667852536180
H           44.48537505471209        4.43877438764398        0.33572130463100
H           46.30321206584663        2.62630845625980        0.30565100843970
H           46.00410385753187       -2.64109807625788       -0.69626708318157
H           44.04318289609659       -4.50819916016028       -0.74762352644889
H           41.71065891181208       -5.20346117856951        1.97205326566892
H           41.68489206464452       -8.81268785871855        2.27473092766854
H           41.26916904868934       -9.74051028755146       -1.03275396893190
H           41.00151243132386       -7.28661891020792       -3.46017566613529
H           41.16491691629187       -5.14618276468290       -2.29281475987325
H           38.72119721442063       -4.52803898434581        0.13536961608882
H           37.03405482044082       -2.57237206003319        0.23641720379773
Fe          98.59650837194329       -0.00219913340253       -0.02347546360887
C          101.93720349714950       -0.14889210315961        0.06579057612863
C          101.26567294200743       -1.30861452567376       -0.08836248437016
C          101.92039147319562       -2.59969538529461       -0.23669011761097
C          100.96917297255524       -3.52123137329474       -0.34994570905904
C           99.67188051294242       -2.84248436612083       -0.27492154267884
N           99.85886338273527       -1.44738038730643       -0.11077710478281
C           98.46627470707838       -3.47013315054354       -0.31575372125993
C           98.43765420548216       -4.94640666208874       -0.47750974893755
C           98.64876863244641       -5.52323266861013       -1.73647175219329
C           98.62698877139356       -6.91661305793757       -1.89357866439978
O           98.84084110638931       -7.45048736000721       -3.15817089380286
C           98.39265418748309       -7.74215337590851       -0.77291516131036
O           98.37834781173306       -9.12369352544892       -0.94158708116908
C           98.17919886683188       -7.15834658760956        0.49175545729677
O           97.94725333280289       -7.97391720923508        1.59461798466514
C           98.20232988966737       -5.76714781819819        0.63075457561432
C           97.18424277189595       -2.76769436440299       -0.19704203046842
C           95.88763083433228       -3.44417374089655       -0.14262102575667
C           94.94407911335601       -2.51014475726579       -0.05048414381163
N           97.04082404817474       -1.46130108428361       -0.14902261823325
C           95.63196970751889       -1.22954083590643       -0.05683202518031
C           95.04397600826344       -0.01778876816460       -0.02929220207396
C           95.79755905187376        1.23689505943245       -0.06128836692586
C           95.22924561953667        2.45401244638213       -0.23648922374932
C           96.26420434622544        3.43712169511256       -0.15388542337212
C           97.43006472194067        2.78378302942127        0.06555553431363
N           97.20685949146886        1.38011735121478        0.12555145452084
C           98.71994130087751        3.46314510718115        0.25753135045040
C           98.74478315709062        4.94279604480397        0.40806462415128
C           98.60106231328939        5.52228734109687        1.67435759014843
C           98.62257780344387        6.91657362575425        1.82547143431690
O           98.48098979149444        7.45346601616682        3.09875120721961
C           98.78645985513809        7.73999160269600        0.69058168337991
O           98.80252737482583        9.12197685811433        0.85425952388886
C           98.92812297510039        7.15332097878506       -0.58285213937457
O           99.08511887357893        7.96718819005021       -1.70044650606906
C           98.90912821250809        5.76102124200851       -0.71532634286405
C           99.89201715402369        2.79180432108827        0.30421582250022
C          101.20973443961537        3.38572414373580        0.49087713541210
C          102.07973022262065        2.37931873436461        0.42865533610597
C          101.31984230897628        1.15396082166128        0.20858842788356
N          100.03015305715462        1.38941714178355        0.13477312739806
H          103.02056991354880       -0.19368040936913        0.08536803931434
H          102.98402036292713       -2.79666333452504       -0.25006686278596
H          101.15535773502991       -4.58040126997895       -0.46427646060301
H           98.83209369968556       -4.88855188105184       -2.59707195611562
H           98.83480184898299       -8.43769845050504       -3.31769754572458
H           98.22903845116046       -9.74045796275026       -0.16950055743297
H           97.79365375248788       -7.58217213268924        2.50184974943497