124
 energy: -225.646749335430 gnorm: 0.931776447498 xtb: 6.5.1 (b24c23e)
Cu          14.15984100000000       -0.03170200000000       -0.00323600000000
C           10.82184400000000        0.09145300000000        0.06884200000000
C           11.48381900000000        1.24089700000000        0.22976400000000
C           10.83294900000000        2.53820400000000        0.36693900000000
C           11.77291800000000        3.44886200000000        0.53962600000000
C           13.07799500000000        2.77344600000000        0.53363000000000
N           12.90120900000000        1.37142800000000        0.32654500000000
C           14.26992900000000        3.37930000000000        0.71528300000000
C           14.31913900000000        4.83776500000000        0.96755400000000
C           13.83646000000000        5.36690800000000        2.17526100000000
C           13.89941400000000        6.74275400000000        2.41574600000000
C           14.45024900000000        7.59929800000000        1.45408500000000
C           14.51626100000000        9.01552100000000        1.70279800000000
N           14.56932000000000       10.15409600000000        1.90284500000000
C           14.93935700000000        7.07429500000000        0.25115100000000
C           14.87604000000000        5.69863900000000        0.00935800000000
C           15.56136200000000        2.64357600000000        0.68376700000000
C           16.84470300000000        3.22865500000000        1.09106100000000
C           17.77950500000000        2.31876100000000        0.90625100000000
N           15.70439000000000        1.42173000000000        0.27017600000000
C           17.09972100000000        1.14102600000000        0.38106700000000
C           17.69428100000000       -0.00100800000000       -0.00070500000000
C           16.93106800000000       -1.16109900000000       -0.51213200000000
C           17.46198600000000       -2.15361900000000       -1.21498900000000
C           16.41937000000000       -3.13941600000000       -1.42448300000000
C           15.32146200000000       -2.68552200000000       -0.83096800000000
N           15.55485800000000       -1.41219800000000       -0.22706300000000
C           14.04296800000000       -3.43685900000000       -0.74484700000000
C           14.06622700000000       -4.90239800000000       -0.97238900000000
C           13.38205600000000       -5.46644100000000       -2.06183400000000
C           13.42393800000000       -6.84643800000000       -2.28219800000000
C           14.15559200000000       -7.67331300000000       -1.42059200000000
C           14.19960800000000       -9.09387600000000       -1.64862800000000
N           14.23503200000000      -10.23595900000000       -1.83188400000000
C           14.84732400000000       -7.11436400000000       -0.33867500000000
C           14.80540700000000       -5.73453700000000       -0.11695700000000
C           12.88064700000000       -2.81772500000000       -0.46216300000000
C           11.57335800000000       -3.45549200000000       -0.31518400000000
C           10.71137800000000       -2.48054000000000       -0.09978900000000
C           11.45958700000000       -1.22456100000000       -0.09487900000000
N           12.72461300000000       -1.40888200000000       -0.30513200000000
H            9.73848400000000        0.11927900000000        0.05948500000000
H            9.76959800000000        2.73734500000000        0.32973200000000
H           11.58488300000000        4.50761700000000        0.66088600000000
H           13.41415400000000        4.71312900000000        2.92853300000000
H           13.52133000000000        7.13780900000000        3.35104700000000
H           15.37018600000000        7.72744100000000       -0.49819000000000
H           15.25908600000000        5.30340900000000       -0.92352200000000
H           17.01537000000000        4.22475700000000        1.47784400000000
H           18.83328300000000        2.45075800000000        1.11247400000000
H           18.48775500000000       -2.23401700000000       -1.54902200000000
H           16.52848400000000       -4.08187300000000       -1.94535400000000
H           12.82070200000000       -4.83639000000000       -2.74086600000000
H           12.88921400000000       -7.26767200000000       -3.12505500000000
H           15.41924500000000       -7.74435900000000        0.33199800000000
H           15.34577600000000       -5.31397000000000        0.72235700000000
H           11.33176300000000       -4.50895900000000       -0.36631500000000
H            9.64675900000000       -2.60341700000000        0.05006100000000
Cu          33.07648900000000        0.02950500000000       -0.00489400000000
C           36.41448600000000       -0.08956800000000        0.07374600000000
C           35.75251100000000       -1.22861400000000        0.29665800000000
C           36.40338100000000       -2.51659300000000        0.50386300000000
C           35.46341200000000       -3.41656600000000        0.72559700000000
C           34.15833500000000       -2.74246600000000        0.68304500000000
N           34.33512100000000       -1.35371400000000        0.40036400000000
C           32.96640100000000       -3.33759700000000        0.89723100000000
C           32.91719100000000       -4.78026600000000        1.22808700000000
C           33.39987000000000       -5.24325200000000        2.46267000000000
C           33.33691600000000       -6.60406200000000        2.77728500000000
C           32.78608100000000       -7.51141100000000        1.86340500000000
C           32.72006900000000       -8.91209200000000        2.18842300000000
N           32.66701000000000      -10.03816900000000        2.44981400000000
C           32.29697300000000       -7.05230100000000        0.63381300000000
C           32.36029000000000       -5.69175200000000        0.31790200000000
C           31.67496800000000       -2.60465800000000        0.82593200000000
C           30.39162700000000       -3.16683000000000        1.26430200000000
C           29.45682500000000       -2.26827500000000        1.03050500000000
N           31.53193900000000       -1.40699400000000        0.34680100000000
C           30.13660900000000       -1.12069900000000        0.44233200000000
C           29.54204900000000       -0.00100800000000       -0.00070500000000
C           30.30526200000000        1.12969600000000       -0.57418600000000
C           29.77434400000000        2.08271000000000       -1.32974300000000
C           30.81696000000000        3.05572000000000       -1.59229800000000
C           31.91486799999999        2.63462300000000       -0.97508100000000
N           31.68147200000000        1.39585900000000       -0.30312800000000
C           33.19336200000000        3.38952000000000       -0.92976000000000
C           33.17010300000000        4.84059100000000       -1.23630800000000
C           33.85427400000000        5.34482800000000       -2.35469000000000
C           33.81239100000000        6.71087200000000       -2.64943900000000
C           33.08073700000000        7.58317900000000       -1.83386100000000
C           33.03672200000000        8.98931400000000       -2.13846700000000
N           33.00129800000000       10.11980100000000       -2.38328200000000
C           32.38900600000000        7.08362100000000       -0.72327100000000
C           32.43092300000000        5.71782000000000       -0.42717900000000
C           34.35568300000000        2.78659800000000       -0.61397300000000
C           35.66297099999999        3.43138600000000       -0.50173700000000
C           36.52495200000000        2.46952400000000       -0.23387600000000
C           35.77674300000000        1.21565300000000       -0.16098000000000
N           34.51171700000000        1.38832100000000       -0.38090300000000
H           37.49784600000000       -0.11786000000000        0.06590900000000
H           37.46673199999999       -2.71745600000000        0.47749200000000
H           35.65144700000000       -4.46720500000000        0.90399700000000
H           33.82217600000000       -4.54965300000000        3.17944300000000
H           33.71500000000000       -6.94790400000000        3.73260200000000
H           31.86614400000000       -7.74505500000000       -0.07907000000000
H           31.97724400000000       -5.34760400000000       -0.63500700000000
H           30.22095900000000       -4.14053200000000        1.70444400000000
H           28.40304700000000       -2.38891400000000        1.24357200000000
H           28.74857500000000        2.14490700000000       -1.66763800000000
H           30.70784600000000        3.96859700000000       -2.16342600000000
H           34.41562800000000        4.67894200000000       -2.99861800000000
H           34.34711600000000        7.08585900000000       -3.51386500000000
H           31.81708500000000        7.74900000000000       -0.08768700000000
H           31.89055400000000        5.34330700000000        0.43367200000000
H           35.90456700000000        4.48054000000000       -0.60982300000000
H           37.58957000000000        2.60033300000000       -0.09089800000000
C           19.11780200000000        0.01461200000000        0.01022100000000
C           20.57602800000000       -0.00722500000000       -0.00765200000000
C           21.70995600000000       -0.02797900000000       -0.00914300000000
C           23.07133800000000       -0.04056800000000       -0.01133400000000
C           24.34555700000000       -0.03026200000000       -0.01610000000000
C           25.53401900000000       -0.01146400000000       -0.02225600000000
C           26.88638000000000        0.01332100000000       -0.00638800000000
C           27.98664700000000        0.01461200000000        0.01022100000000
124
 energy: -225.849239834521 gnorm: 0.342539694027 xtb: 6.5.1 (b24c23e)
Cu          14.16790969442077       -0.02641126041396       -0.00131949935808
C           10.82220505123204        0.07377659552140        0.06669051720532
C           11.48895798644908        1.24224065979581        0.22948506687884
C           10.83260460892926        2.53130206338440        0.36597639060556
C           11.78343116227238        3.45107607857933        0.54010744689144
C           13.07633552403206        2.76839675650045        0.53240513192357
N           12.88046470216338        1.39073536580505        0.32999657878677
C           14.28566864007203        3.37613581702403        0.71682737498234
C           14.32530156291651        4.83915535068395        0.97016993982991
C           13.83720854838212        5.37119296076747        2.17121607204669
C           13.89979927485552        6.74030318004528        2.41279213220629
C           14.45030827888494        7.60025767234549        1.45425902456386
C           14.51619154461656        9.01251224646115        1.70230573416263
N           14.56886824103922       10.14551649600885        1.90133788293620
C           14.93800493530082        7.07131420754824        0.25271809228514
C           14.87636289041584        5.70176835432286        0.01455113409611
C           15.55447176288017        2.66367513501644        0.68650429473413
C           16.82838933451411        3.24345024065318        1.09132849996830
C           17.77501427087146        2.31353830860425        0.90415418255648
N           15.71930001839224        1.41807724255755        0.27757371357423
C           17.09930840998265        1.14799722380255        0.38464573652506
C           17.71704482648206       -0.01326194739070       -0.01000134126133
C           16.92764114855942       -1.15791343175534       -0.50013958210389
C           17.46470716798193       -2.17651973170444       -1.22431987718140
C           16.44150639572538       -3.14288493265527       -1.42756992738900
C           15.31363653925985       -2.67783209213591       -0.81812639463643
N           15.56368579123067       -1.41361645595350       -0.23534287864067
C           14.05818606211638       -3.42778283569876       -0.74297972208778
C           14.07491147354419       -4.89909130968541       -0.97630716203092
C           13.38426075254387       -5.46874331675344       -2.05713295872971
C           13.42503709234346       -6.84285439031495       -2.27897029089644
C           14.15562333198844       -7.67389968339129       -1.42068673299224
C           14.19963076204661       -9.09069677310994       -1.64823238997773
N           14.23466613273139      -10.22720009587380       -1.83046085432360
C           14.84523524123724       -7.11057925121851       -0.33982876172666
C           14.80514195307552       -5.73637812324959       -0.12202730176537
C           12.88001362301723       -2.81658403472000       -0.46096520254901
C           11.58096859768080       -3.45350366853047       -0.31655670982126
C           10.70081375458723       -2.46846155194316       -0.09766416594366
C           11.43874936429549       -1.21625009455350       -0.09441578964982
N           12.72295528712958       -1.42006918170493       -0.30448480706191
H            9.73898009589387        0.11211091275016        0.05996773096639
H            9.76991604094786        2.72786914002499        0.32840746469420
H           11.59692870744125        4.50861046785265        0.66191172753108
H           13.41572940193954        4.71426287645562        2.92567752294249
H           13.52228538254458        7.13745306730141        3.34910422849334
H           15.36906666854511        7.72667197901955       -0.49655331603210
H           15.25787928011984        5.30380338529333       -0.92050376873043
H           17.00493265165529        4.23221552599220        1.47863586845918
H           18.83015804134513        2.44014691543753        1.10858720287528
H           18.48872163366010       -2.24067286412447       -1.55370910363162
H           16.53505631857844       -4.08202279702666       -1.94848896240347
H           12.82284136415953       -4.83700775423307       -2.73824448043373
H           12.89061416025856       -7.26668394207490       -3.12300369693514
H           15.41769249530543       -7.74318639040279        0.33048324886020
H           15.34433344595905       -5.31422952662910        0.71980878760674
H           11.34298991393146       -4.50737491517103       -0.36754620077887
H            9.64155911905345       -2.59521922528647        0.05156647904866
Cu          33.06938777175866        0.02467354920464       -0.00213118514235
C           36.41403812178319       -0.07226676272458        0.07079613172640
C           35.74743259016760       -1.22988436270708        0.29662957253201
C           36.40380025529674       -2.51010255820475        0.50247002640369
C           35.45335615388728       -3.41878330062339        0.72673683325523
C           34.15994156714161       -2.73741494911521        0.68182444479996
N           34.35603408818029       -1.37378582631657        0.40328006712073
C           32.95120361396042       -3.33466926465712        0.89838973000342
C           32.91101926155509       -4.78168788043693        1.23078037956979
C           33.39910886789869       -5.24780108571214        2.45888305447148
C           33.33654864177362       -6.60180779478745        2.77421059758815
C           32.78602052282415       -7.51237587318805        1.86363378561437
C           32.72014432259841       -8.90913160795819        2.18777076345428
N           32.66745559088806      -10.02968372879868        2.44784700630872
C           32.29828791339133       -7.04928989147237        0.63522382653298
C           32.35993324754375       -5.69467795637698        0.32325549379830
C           31.68240659690079       -2.62377146852269        0.82944548273867
C           30.40582220516010       -3.18004452835796        1.26605614605711
C           29.46029110404076       -2.26335378173966        1.02723148696702
N           31.52169635241074       -1.40569350900261        0.35385917031783
C           30.14094223399649       -1.12373426485840        0.44487200677935
C           29.55636002574457        0.01115016924440       -0.00856528042966
C           30.31346133411124        1.12613375720554       -0.56162646771950
C           29.77157362697406        2.10579935353360       -1.33947606590618
C           30.79385602785365        3.05861995655145       -1.59594041869598
C           31.92314453131880        2.62774338510162       -0.96188256676214
N           31.67586174011552        1.39843042016453       -0.31225464072092
C           33.17815930564767        3.38072631265902       -0.92734181992461
C           33.16139287216228        4.83717686004311       -1.24007696722843
C           33.85206325113515        5.34739961432722       -2.35013854030487
C           33.81129350717563        6.70748313322071       -2.64602611501360
C           33.08070539634971        7.58376019995282       -1.83398591132896
C           33.03670070052915        8.98617294606921       -2.13790110531832
N           33.00166321806494       10.11112876387057       -2.38138758537057
C           32.39109108167746        7.07980188442699       -0.72422337066451
C           32.43118452050800        5.71941070176451       -0.43233941022212
C           34.35649356844198        2.78565789171038       -0.61280888166643
C           35.65555344758241        3.42944745793361       -0.50324690745654
C           36.53565227486109        2.45775085197016       -0.23113407549789
C           35.79764888492035        1.20761134832461       -0.16017796921277
N           34.51383889862367        1.40026010229393       -0.37999377983390
H           37.49731021340446       -0.11076653521814        0.06594342776420
H           37.46648807163628       -2.70818239669156        0.47572988585495
H           35.63955024968224       -4.46823830693259        0.90510457932972
H           33.82060484058117       -4.55094538106819        3.17663653536444
H           33.71404837684777       -6.94766695460219        3.73065104319714
H           31.86726251342338       -7.74422936423750       -0.07748634659891
H           31.97847129626661       -5.34786841495864       -0.63198939285683
H           30.23066874028167       -4.14743292778255        1.70545728126918
H           28.40577676270079       -2.37880916991201        1.23931344628016
H           28.74781745716404        2.15120283755134       -1.67274579448645
H           30.70085513187579        3.96846775927118       -2.16665665025224
H           34.41348788419101        4.67970004014484       -2.99602975194949
H           34.34571760850280        7.08498726363898       -3.51176406300742
H           31.81863510816115        7.74775465802124       -0.08913609721214
H           31.89200706772558        5.34343612834115        0.43112095171121
H           35.89340024950497        4.47898455428733       -0.61100479979289
H           37.59486161755588        2.59229162452353       -0.08899526965015
C           19.13501881832234       -0.00120819161577        0.00529249341971
C           20.46670622821728       -0.00890747217714       -0.00742445812431
C           21.74050260685048       -0.02846422080050       -0.00870283269172
C           23.02562477623457       -0.03998943118265       -0.01167061966547
C           24.31353806630277       -0.03070073173883       -0.01595404882972
C           25.54001146021049       -0.01249240280326       -0.02190181464819
C           26.86374648353629        0.01676107639149       -0.00758667419642
C           28.08997367232672        0.02545804768897        0.00544569898837
124
 energy: -225.910111470506 gnorm: 0.151717940576 xtb: 6.5.1 (b24c23e)
Cu          14.18258183671786       -0.01971287300149        0.00580082927906
C           10.82496141732674        0.05558516560916        0.06478058148333
C           11.49341539690189        1.24500761853447        0.22912457015098
C           10.83480238779465        2.52482571604112        0.36486413864946
C           11.79597717889227        3.45190431153300        0.54110400271505
C           13.07436754369822        2.76294787429341        0.53114734535678
N           12.85650522113529        1.41471530414907        0.33043446879292
C           14.30534186251155        3.36813096468994        0.71842457117570
C           14.33538120959187        4.83636551691553        0.97405447200962
C           13.83893657709467        5.37311998437800        2.16666172516154
C           13.89955955771184        6.73663535939175        2.40885108770019
C           14.45014167765751        7.59871849438708        1.45393649151853
C           14.51591599123099        9.00494710539595        1.70107994129996
N           14.56835317691795       10.13713339823018        1.89991853475680
C           14.93671951328105        7.06735431789725        0.25444538043386
C           14.87936818135582        5.70256581094460        0.02107075316748
C           15.55069610882154        2.68090762704496        0.68888728791392
C           16.81377976655894        3.25704623081269        1.08830744158295
C           17.76729065882467        2.31136378519927        0.90057939405301
N           15.74207747352271        1.41018563378797        0.28944196929271
C           17.10467683949682        1.14807498187111        0.38708725908947
C           17.74529461486420       -0.02736000443793       -0.02217650079913
C           16.93753251970343       -1.15753662239609       -0.48615140133896
C           17.47367969906001       -2.20849154944598       -1.22871564070710
C           16.47391139901848       -3.14722330021556       -1.42341262509722
C           15.31727382849355       -2.66850315395290       -0.80176684260399
N           15.58619531748098       -1.41314255640301       -0.25018381355219
C           14.08391879513501       -3.40955400817423       -0.73929464266597
C           14.09321234887712       -4.88685895496652       -0.98391198247350
C           13.39020550100204       -5.46507422137333       -2.05140849206202
C           13.42610823193496       -6.83485195246500       -2.27329880834072
C           14.15559502314067       -7.67014093091267       -1.41988812393916
C           14.19933107421348       -9.08141753691607       -1.64694503984405
N           14.23412325650633      -10.21723322309206       -1.82899218863604
C           14.84313844775159       -7.10377772593900       -0.34092532523425
C           14.80938505761977       -5.73351549240254       -0.12956677513708
C           12.88055109595117       -2.80899581294044       -0.45673147713852
C           11.58993332746143       -3.44474796765449       -0.31837152666546
C           10.69118308979175       -2.45652742139703       -0.09880037916471
C           11.41631007239397       -1.20881704909218       -0.09463238424763
N           12.72083452798680       -1.43250646487933       -0.29884670072897
H            9.74123766152433        0.10145530512240        0.06346661219598
H            9.77175111967154        2.71219283731844        0.32630081752836
H           11.61944060604437        4.50976311037058        0.66386910563254
H           13.41805183027266        4.71476742455790        2.92077710771035
H           13.52340877491457        7.13657318706060        3.34505918948332
H           15.36644363376150        7.72543230413417       -0.49379062842768
H           15.25717399736924        5.30327932823606       -0.91539784938529
H           16.98796922929184        4.24404836303734        1.47797552334940
H           18.82287363596511        2.42623489275110        1.10325935513669
H           18.49458591631668       -2.25491131021357       -1.56365594062167
H           16.54649396083454       -4.08234615164405       -1.95291370279187
H           12.82694620012842       -4.83483717738480       -2.73302363075728
H           12.89268107759458       -7.26221460268002       -3.11740372044608
H           15.41378952060044       -7.74006010251575        0.32841181287014
H           15.34429619325763       -5.31276055582970        0.71586625884676
H           11.36397526776114       -4.50085118925380       -0.36916631076092
H            9.63349151541724       -2.58336884223774        0.05262552132807
Cu          33.05607081506052        0.01806489510446        0.00492119297302
C           36.41148513565415       -0.05417985969890        0.06770858596597
C           35.74315838617029       -1.23272470791577        0.29595242597103
C           36.40193489108053       -2.50362523095145        0.50103049786404
C           35.44131856519465       -3.41972795315341        0.72771093685370
C           34.16251067411742       -2.73261834206133        0.68016325752109
N           34.38024572584903       -1.39748523926485        0.40611606855103
C           32.93331594205668       -3.32847183143525        0.89987827503996
C           32.90186721738605       -4.77973621309195        1.23454938281499
C           33.39765342154175       -5.25046108405670        2.45468400033575
C           33.33678698058405       -6.59869294491493        2.77029214545532
C           32.78618392306576       -7.51104726066312        1.86328388989019
C           32.72040803373957       -8.90177403004000        2.18616256780954
N           32.66795836835686      -10.02153294499535        2.44600216810717
C           32.29949301820021       -7.04551055145376        0.63677105998113
C           32.35706181370083       -5.69550338469281        0.32982204768003
C           31.68867834882127       -2.64380797678913        0.83377126967899
C           30.42182812898292       -3.19517100855478        1.26380684201965
C           29.47066383056639       -2.26133506147193        1.02405512704578
N           31.50453872342725       -1.40017953102863        0.36693906739323
C           30.14208668601296       -1.12678146760070        0.44980484003986
C           29.54178364340626        0.02844656422242       -0.02137521855035
C           30.31143685528570        1.12959608790867       -0.54946018382852
C           29.76604509274964        2.13821385824054       -1.34560632957903
C           30.76313111878991        3.06472820799342       -1.59210825149321
C           31.92226314812494        2.62192958754776       -0.94646534482866
N           31.65994958815425        1.40030156620528       -0.32942690509457
C           33.15411867721210        3.36426562442010       -0.92313896263413
C           33.14392568827404        4.82547292595055       -1.24697487961501
C           33.84641124867250        5.34450431830012       -2.34443538289643
C           33.81027158812950        6.70011178091104       -2.64012091180240
C           33.08074070577615        7.58021297729353       -1.83303855987766
C           33.03698280454147        8.97708475365637       -2.13614446949676
N           33.00219189281207       10.10137735645999       -2.37940980765512
C           32.39313617319773        7.07315738026641       -0.72499787987304
C           32.42708994280723        5.71644375881593       -0.43973732938744
C           34.35653798840701        2.77872798774909       -0.60812766927891
C           35.64704713776472        3.42065200140984       -0.50449670227541
C           36.54555323386145        2.44564821769654       -0.23162060736200
C           35.82026590659583        1.20007370994514       -0.15983976702070
N           34.51599329976663        1.41300123662317       -0.37509781058362
H           37.49519097254009       -0.09985493871507        0.06889807658599
H           37.46496636514581       -2.69249536891428        0.47276835448140
H           35.61735376049782       -4.46944531352505        0.90720000906115
H           33.81837077485205       -4.55191288510050        3.17184679929520
H           33.71293612851817       -6.94726798876856        3.72674238351966
H           31.86980996285943       -7.74302990575259       -0.07480060394998
H           31.97926986018434       -5.34715623278019       -0.62682276738186
H           30.24779301668384       -4.16001225228153        1.70550118282572
H           28.41471698019478       -2.36374575291974        1.23252918166744
H           28.74430346060507        2.16381730300552       -1.68219538158572
H           30.68964644428550        3.96956134040513       -2.17123168881131
H           34.40948393260847        4.67800636134246       -2.99080276322988
H           34.34368181588772        7.08107019576406       -3.50609780420443
H           31.82247857309281        7.74464909235958       -0.09104417106127
H           31.89216005281930        5.34180310592804        0.42715731630081
H           35.87276038453049        4.47244992253203       -0.61229817628415
H           37.60318049870186        2.58040064246436       -0.08731918636551
C           19.18271600080476       -0.02770999547471       -0.00786239153079
C           20.38213120610498       -0.02094533434293       -0.01104267558397
C           21.72392415426074       -0.02982685562115       -0.00680123135975
C           22.96186219527023       -0.03645683492139       -0.01248256780975
C           24.29557641838650       -0.02929098483347       -0.01344298049952
C           25.54731416522591       -0.01498992009272       -0.01981779419047
C           26.88358587484698        0.02557460135920       -0.01213827668473
C           28.12634669103661        0.04937162612097       -0.01068961515967
124
 energy: -225.928477586107 gnorm: 0.070815025533 xtb: 6.5.1 (b24c23e)
Cu          14.19716051248680       -0.01595755818304        0.01732227964275
C           10.82611725171627        0.04843519139983        0.06574494160617
C           11.49395435813365        1.24955692581949        0.22840711112217
C           10.83729035699242        2.52381859957535        0.36374573024843
C           11.80441429070640        3.45379786951246        0.54190747705990
C           13.07161216376103        2.76219586315828        0.53062163175898
N           12.84469497623597        1.42750912673812        0.33111136272470
C           14.31286547003833        3.36479346686147        0.72150784808147