694
 energy: -1345.321219684170 gnorm: 0.000718238411 xtb: 6.5.1 (b24c23e)
C          115.22371342474010       -0.22267910152502        0.06286352387215
C          115.83620106341763       -0.99626587097022       -0.91461531762286
C          115.18681673939881       -1.77751914823521       -1.91129890598129
C          116.15107572993027       -2.38473129332681       -2.66527851725465
C          117.42121975467511       -2.00464191413084       -2.14504689531404
N          117.18017249824315       -1.15857174186211       -1.09988064870618
C          118.68693578180219       -2.39347892150541       -2.59917264943468
C          118.72686251085736       -3.34268756292694       -3.73912809698824
C          119.36034511443542       -2.97104131792920       -4.92839789721463
C          119.39338526520447       -3.85565187440569       -5.99894033717920
O          119.98852433819927       -3.55849628916148       -7.19675307215713
C          118.80318039164885       -5.11225208287924       -5.88940952185919
O          118.82405363414667       -6.00426221246583       -6.92902459410748
C          118.17331602416841       -5.48589309390548       -4.70112431340121
O          117.60535261200103       -6.71250878646272       -4.60293551377788
C          118.13263603805379       -4.60031709641904       -3.63044633070790
C          119.89843455542866       -1.95463062515201       -2.05914817353067
C          121.19940609851321       -2.43554111610433       -2.48845763398207
C          122.11427489522225       -1.78221998201474       -1.74240764154808
N          120.04539694277327       -1.04298812637133       -1.05822489386904
C          121.37113913856423       -0.90961790535706       -0.85432286582569
C          122.00184381301391       -0.04508256651718        0.06399817597101
C          121.36122452543501        0.80357589888071        0.98665723529247
C          122.00022260286880        1.70395780975424        1.87988598269887
C          121.03099082024595        2.32825008062016        2.61479642404337
C          119.76903656778504        1.81911842509770        2.19989067781990
N          120.02064083829669        0.90972744910347        1.20603757676470
C          118.50592488742839        2.17496118636391        2.68411506611793
C          118.46548681116073        3.16110484555454        3.79149458061312
C          119.10130924227762        2.88587292888435        5.00270347064367
C          119.05949229631288        3.81138870332774        6.03889307603216
O          119.66754094100781        3.54995372831670        7.22151917548547
C          118.38683470243036        5.02186078527033        5.86358084132281
O          118.36598729545666        5.91663310599155        6.90081040565796
C          117.75531432497641        5.29812265531139        4.65351647654772
O          117.11989431746747        6.50801038122844        4.55417901814092
C          117.78890908045436        4.37203422104971        3.61865595109466
C          117.29434688962603        1.66933955932784        2.19900780489255
C          115.99008535577801        1.99105255921912        2.75701033644355
C          115.08238664583429        1.31935615630042        2.02001696726601
C          115.83121039603613        0.57976596009784        1.01967906884633
N          117.16010823748532        0.80634143331189        1.16444745951720
H          114.13874101593619       -0.25329365940582        0.07113000321827
H          114.11753365659516       -1.85107442201978       -2.02979129417675
H          116.00131386426470       -3.03457890810744       -3.51204930753167
H          117.90456135797285       -0.71663499118609       -0.54381053619976
H          119.80897174821935       -1.98941590170336       -5.02570295103980
H          120.37782119195683       -2.67440974522370       -7.17723438054338
H          119.29973775082580       -5.59167299406969       -7.66749485482372
H          117.74175138285709       -7.18022525768356       -5.44342022835093
H          117.65736640064733       -4.90856295831024       -2.70815115647147
H          121.36825550065228       -3.18476869883468       -3.24492661664218
H          123.18865356711953       -1.87087518869034       -1.76566821569895
H          123.06627543146352        1.85253581136158        1.94050059654026
H          121.17419251075185        3.08120355502744        3.37240835250689
H          119.30138136490969        0.39522380356032        0.70845026303308
H          119.61090345388136        1.94348966509271        5.15682308190314
H          119.52449999068290        4.30756477853578        7.81254331213843
H          117.85936535115603        6.69359291237708        6.61534240171295
H          116.70741353152692        6.60938864230457        3.68637630387815
H          117.30840731026223        4.60061197880901        2.67462276610516
H          115.81767368940305        2.63173631734414        3.60691344959582
H          114.00887210854918        1.29898762688224        2.12492982022103
C          289.17204295898512       -0.10018687224151        0.22924609051738
C          288.55825264026146        0.67370517480066        1.20564373526229
C          289.20640036603299        1.44975551968826        2.20718847141472
C          288.24119925362379        2.05186311287070        2.96405330465412
C          286.97144149846008        1.65276498321663        2.45729218039657
N          287.21401340752112        0.83263760915877        1.39196742896806
C          285.70515834134403        2.02211837572946        2.92569133472067
C          285.66406050822644        2.90781371251493        4.11575606462554
C          285.05356612056903        4.16197697640476        4.02642054776439
C          285.01906521235134        4.99396879179674        5.13833354555483
O          284.44544459577889        6.23822187022594        5.12402226075190
C          285.58508494477041        4.58087969282821        6.34178577409593
O          285.56203352420789        5.38096576852674        7.45379528913274
C          286.19222286797680        3.32735948415900        6.43313460770856
O          286.73681787787643        2.93280901453752        7.60989461989699
C          286.23429363172534        2.49530878287635        5.32042390958317
C          284.49436765945586        1.61765760853465        2.35795780729324
C          283.19111590282415        1.94570518546377        2.90753749477668
C          282.27798452304853        1.38112476227442        2.09035881318703
N          284.35006352256028        0.85335700255638        1.24014991562896
C          283.02427385888120        0.70292735562537        1.04848153812433
C          282.39615891351747        0.00432599582790       -0.00304990215618
C          283.03860285177950       -0.71205898126272       -1.03059337482146
C          282.40206352621038       -1.37424384104922       -2.11378887314475
C          283.37263253578169       -1.95109976077818       -2.88473075510775
C          284.63293472131710       -1.66835959787035       -2.28836824886239
N          284.37906675635668       -0.90799436812758       -1.17685061184989
C          285.89679266020801       -2.06155670621651       -2.74060501290289
C          285.94049232100480       -2.90719955205768       -3.95865243456019
C          285.30220502114150       -4.14779260720290       -3.97848243922961
C          285.34689512813316       -4.93729393052909       -5.12164297716287
O          284.73644184455770       -6.14689089648654       -5.14806221760160
C          286.02496271867392       -4.48356581921239       -6.25426951921057
O          286.04846006855047       -5.28121080425222       -7.36786671078763
C          286.65912914222952       -3.24387712962142       -6.23559762096345
O          287.30006559643294       -2.86402141866948       -7.38558696152785
C          286.62271088212145       -2.45587205917822       -5.09217285919300
C          287.10664673450350       -1.71388013527114       -2.12889558854301
C          288.41076881559997       -2.18892747720894       -2.56428601950525
C          289.31646456388410       -1.63774323433112       -1.73112686850775
C          288.56651473692006       -0.83468428625807       -0.78186178102192
N          287.23893457463549       -0.91212150324394       -1.04593034961129
H          290.25649494760302       -0.12655820144557        0.26728942292671
H          290.27566872398353        1.53364955460611        2.31880193415091
H          288.39011723553210        2.71956748873651        3.79697910547637
H          286.49043425973377        0.40546027081514        0.82343831995817
H          284.62387279418959        4.49586030003792        3.08929703288211
H          284.07100499748850        6.43398614676128        4.25510682754678
H          285.10327581375060        6.20371138621532        7.22043505871198
H          286.60296062462004        3.64139973823294        8.26084279995823
H          286.69166581476173        1.51830087160232        5.40872975256240
H          283.01924871648998        2.51479536000552        3.80680994522391
H          281.20270550826069        1.39944309323690        2.16862804324210
H          281.33673196475638       -1.39463838442656       -2.27765580582830
H          283.23143815099411       -2.51621202916263       -3.79143638758422
H          285.09690234879019       -0.54388113355654       -0.55897206375178
H          284.78825747936537       -4.51815885103999       -3.10087217549279
H          284.88081533934985       -6.54299516017097       -6.02327764661523
H          286.55766912546909       -4.82151743724050       -8.05430399939410
H          287.71273548250110       -1.99698572665247       -7.27862913145165
H          287.10545093275829       -1.48566511581114       -5.09023116396283
H          288.58421217365145       -2.86475436632142       -3.38630862845530
H          290.38921748060665       -1.75204212728944       -1.72846134665378
C          123.40694771764471       -0.01657755903917        0.06664108008156
C          124.63149099705301        0.00629508082494        0.06793182467046
C          125.97372417263333        0.02515809398852        0.06556339556533
C          127.20449704265732        0.03812618549445        0.06222795645882
C          128.54202603105816        0.04806914880795        0.05599131597951
C          129.77290093063976        0.05418735745539        0.04768036108627
C          131.11502479996940        0.05559761433307        0.04004598545459
C          132.33996148477019        0.05643910337328        0.03209697445310
C          141.99476118876154        0.01181333248073       -0.01175012666980
C          143.22003154175752        0.00949964322918       -0.01155243084550
C          144.56129009270927        0.00483646756736       -0.01144369712259
C          145.79259948129638        0.00291638016158       -0.01053527601182
C          147.12919455443230        0.00047842217598       -0.01058277078131
C          148.36051663928708       -0.00100163327485       -0.01044362847026
C          149.70175822174701       -0.00135366562298       -0.01108583814083
C          150.92703908384433        0.00091858418373       -0.00997200320667
C          160.57746615283733        0.00116435646838       -0.00909477957035
C          161.80272181728702        0.00401526453847       -0.00652965498527
C          163.14384583509803        0.00409902649070       -0.00701227849944
C          164.37513860306873        0.00781348977525       -0.00489902027586
C          165.71160373296416        0.00695660900415       -0.00782367220902
C          166.94290575557480        0.00850744077656       -0.00775965245105
C          168.28403064335640        0.00868776282147       -0.00835432430618
C          169.50930188797204        0.01143467717504       -0.01138685907113
C          179.15683231314409        0.00531328035007       -0.02014645349216
C          180.38206471089521        0.00749057269087       -0.01976492150682
C          181.72312530336706        0.00638728556726       -0.01889128806899
C          182.95439812421890        0.00656437062523       -0.01890798906870
C          184.29079950360008        0.00620470648754       -0.01920509846271
C          185.52207448107359        0.00788273168687       -0.01888647589735
C          186.86313382353609        0.00623393439187       -0.02068641497469
C          188.08838438703580        0.00903702253049       -0.02116993558930
C          197.73435494886010        0.00485552143740       -0.02979396340735
C          198.95958016290629        0.00673042177478       -0.02999784929526
C          200.30061581512837        0.00649106634279       -0.03108661281605
C          201.53188659284407        0.00667448102191       -0.02986987231620
C          202.86826380174571        0.00620432864658       -0.02857086741837
C          204.09954342605405        0.00707770202460       -0.03095717874750
C          205.44058599319871        0.00649620139542       -0.03365306788504
C          206.66583983983230        0.00895208427970       -0.02950344595838
C          216.31175336111409        0.00467458167186       -0.02401692697239
C          217.53698334493126        0.00798617686301       -0.02352890673698
C          218.87804075564074        0.00493672652955       -0.02231606202037
C          220.10931069943075        0.00607336467839       -0.02122774194861
C          221.44570956678024        0.00655715152825       -0.02150328005410
C          222.67699037210735        0.00674945359291       -0.02095150215786
C          224.01804759990083        0.00570126389362       -0.02081761649972
C          225.24329782522045        0.00791511497648       -0.02134180853859
C          234.89071151466058        0.00261820423800       -0.01278829669504
C          236.11596522648588        0.00479881210656       -0.01061357410110
C          237.45708638813767        0.00414662557469       -0.00943363695598
C          238.68838151404458        0.00486028529280       -0.00779988694946
C          240.02484192295071        0.00458279403110       -0.00624534396438
C          241.25614668399928        0.00515662741160       -0.00521134818369
C          242.59726923931331        0.00452449152849       -0.00422342576594
C          243.82255418879510        0.00680831583083       -0.00279708709945
C          253.47283303806580        0.00087279033932        0.02643766366149
C          254.69810445249766        0.00418059789566        0.02832657096989
C          256.03934449205735        0.00519177149776        0.02796888662979
C          257.27065861078239        0.00817928032720        0.02560327868902
C          258.60722786072228        0.01358742399560        0.02005031532457
C          259.83852621951132        0.01736122777830        0.01219450168909
C          261.17972710880247        0.02097811348513        0.00088057105341
C          262.40494245591043        0.02767776305074       -0.01135689671893
C          272.05848627063330        0.05513629179704       -0.12419315439555
C          273.28337563958104        0.05740521666158       -0.12842892071729
C          274.62560227216301        0.05609951315255       -0.12766007883335
C          275.85644476135360        0.05159025750035       -0.12266983867289
C          277.19403047932911        0.04383236071796       -0.11142899957489
C          278.42466943208018        0.03642327026317       -0.09467316518777
C          279.76686652605065        0.02655104411172       -0.07032924317473
C          280.99118541504509        0.01758192025305       -0.04083263324266
C          133.74433219591199        0.04985437255465        0.02163809876447
C          134.36247873506812       -1.21592919704229        0.00962747610975
C          133.70384813580858       -2.47173883652266        0.04561096332707
C          134.66014049960617       -3.44973492317360        0.00410886967726
C          135.93090899086644       -2.81776010569500       -0.06892259868087
N          135.70042720345941       -1.46787645325107       -0.05172171678997
C          137.18553157061933       -3.43771217766490       -0.13300736984860
C          137.19009227306020       -4.92059105013861       -0.18383203439820
C          137.82329809620396       -5.65560144271936        0.81918103699329
C          137.83326753972926       -7.04740016658638        0.79026937553936
O          138.43765497179291       -7.77340494299293        1.76618119019897
C          137.20879941413395       -7.72380114804051       -0.26290069095782
O          137.20589177810891       -9.08038692007956       -0.32237463848562
C          136.58066436188153       -6.98067734658042       -1.26598519075893
O          135.99292041324222       -7.70423652863743       -2.27130067489607
C          136.56037214142449       -5.59328480672399       -1.23295566120001
C          138.41324662628304       -2.77382943737413       -0.15150666108619
C          139.69444056554619       -3.44265014655389       -0.28999312800874
C          140.63612763916126       -2.47710611348349       -0.25343211585406
N          138.59721615895015       -1.42737559985703       -0.05743392698668
C          139.92834223482066       -1.22127818698008       -0.10342686521341
C          140.59130976416947        0.01973655843327       -0.00962287656883
C          139.97373628777083        1.28196417804323        0.08795600945868
C          140.63342454558727        2.53137154202958        0.21810602106449
C          139.67759528823009        3.50901482715976        0.26359778785229
C          138.40558450701312        2.88429174220832        0.15217916249005
N          138.63566071684627        1.53714054552704        0.06005248504888
C          137.15113260617241        3.50610751243484        0.14988715638908
C          137.14688280655361        4.98886420220833        0.22148193703244
C          137.76615208025791        5.74230181510602       -0.77622586521447
C          137.75963610389360        7.13060050893837       -0.70712736761085
O          138.35162102854224        7.87144089630270       -1.67512992220235
C          137.13982443393297        7.77048753831228        0.36751058350648
O          137.15338888927846        9.13949821460365        0.41144753182590
C          136.52517457193889        7.01804296293592        1.36532843334867
O          135.94246047875444        7.71598638582010        2.38996633221395
C          136.52312033037143        5.63060607266576        1.29500630852780
C          135.92254093367202        2.84531496849353        0.08816940404601
C          134.64063018436079        3.52318188144188        0.01654847997510
C          133.69844944686710        2.55786459938824       -0.01607795715386
C          134.40647365759992        1.29403633678741        0.02480102034479
N          135.73873734674703        1.49628817918710        0.07499497809589
H          132.63526844521101       -2.60195621680296        0.10306942693079
H          134.50044031854571       -4.51520388109564        0.03236531531515
H          136.42804315476047       -0.76115054827576       -0.07244905937694
H          138.29897578043449       -5.14160442816904        1.64678531701377
H          138.83645042705112       -7.19877283527328        2.43274923967183
H          136.72765458259335       -9.34846220785180       -1.12357917438799
H          135.59088180065089       -7.12017409447252       -2.92727909423260
H          136.07985854393922       -5.04037075055736       -2.03158990294367
H          139.83285583223744       -4.50442148799095       -0.41395960789234
H          141.70706344785583       -2.57778403179948       -0.32817428026423
H          141.70262161525898        2.65673346370951        0.27455583020993
H          139.83786083392786        4.56908077883690        0.37264067785253
H          137.90782320691667        0.83420105764135       -0.01297597567638
H          138.23565706244153        5.25776550968946       -1.62258048930372
H          138.23925309149519        8.81048713849279       -1.45297293655309
H          136.68148174948954        9.41793324846915        1.21248840148955
H          135.53600229422611        7.11525338932002        3.02831874173073
H          136.05537288395925        5.05106720840346        2.08215101152379
H          134.50186895379994        4.59154658043925       -0.02025099160398
H          132.62691511797536        2.66423453722921       -0.07240121727356
C          152.33043935559255        0.00001084062758       -0.01082981773997
C          152.95432411065286       -1.26331664884547       -0.00231131918625
C          152.30083492839194       -2.52126108910426        0.04662426480906
C          153.26139845975109       -3.49568838531257        0.01922009879436
C          154.52954301718506       -2.85919404765612       -0.05804397258868
N          154.29328552329670       -1.51007654496200       -0.05636870461740
C          155.78708770985457       -3.47386752973774       -0.11457229612631
C          155.79913099234051       -4.95691369461206       -0.15272427861206
C          156.43797872622758       -5.68016045752202        0.85529973255387
C          156.45509975875061       -7.07206790316494        0.83810340114331
O          157.06489974229541       -7.78668599149215        1.81902273881616
C          155.83233064637892       -7.76058084706182       -0.20822349432173
O          155.83644717406196       -9.11752367706339       -0.25622863112352
C          155.19856788351021       -7.02921604251635       -1.21645898438037
O          154.61302692347826       -7.76433769403284       -2.21450464542727
C          155.17105159073552       -5.64173716486751       -1.19502190289960
C          157.01136261158933       -2.80364536713196       -0.13744749870435
C          158.29621556842972       -3.46632872173846       -0.27047537019989
C          159.23258016417890       -2.49538472198061       -0.23960075622082
N          157.18779615759243       -1.45559245031754       -0.05239465296277
C          158.51785220664175       -1.24252823706091       -0.09825665330908
C          159.17415129452954        0.00238475021225       -0.00959317262686
C          158.55070185396968        1.26237844477243        0.08041266707247
C          159.20454857204015        2.51485751111899        0.20960584211334
C          158.24445359865538        3.48884504074556        0.24579532545481
C          156.97589449807697        2.85851350308489        0.12875230526224
N          157.21182684686931        1.51198079942411        0.04388487524180
C          155.71855394699236        3.47480196696835        0.11316831713679
C          155.70637367098496        4.95771402319939        0.17749656868215
C          156.33343803253871        5.70993557389987       -0.81626596581916
C          156.31926250019825        7.09847679600947       -0.75330841254409
O          156.91880835194215        7.83797161450325       -1.71756753214364
C          155.68386922385969        7.73993914399912        0.31128498329614
O          155.69027771462385        9.10908966492870        0.34939241600046
C          155.06129721404727        6.98874358975437        1.30513639059919
O          154.46327235521571        7.68815429832137        2.31989529782287
C          155.06689967746428        5.60104219377877        1.24084416992296
C          154.49415413077233        2.80750948589120        0.04444244860782
C          153.20961296349981        3.47795931870087       -0.04561101737625
C          152.27278842574339        2.50744329246667       -0.07878423775959
C          152.98691440939155        1.24777071621242       -0.01887127041159
N          154.31720697911672        1.45709793080381        0.04139151982177
H          151.23263805126558       -2.65528966150911        0.10244975800728
H          153.10609615239571       -4.56141631790876        0.05953623089777
H          155.01811683681566       -0.80070909894685       -0.08371319385566
H          156.91232245975863       -5.15675661549542        1.67775825232698
H          157.46232154420599       -7.20445529448225        2.47978578387453
H          155.35828320864715       -9.39498666618643       -1.05429476437945
H          154.20673623923736       -7.18822082137707       -2.87489105565584
H          154.68646600589776       -5.09809275177702       -1.99754308035857
H          158.44052995690481       -4.52809563434062       -0.38751448499671
H          160.30409865078551       -2.59073471634336       -0.31285273506801
H          160.27286457492303        2.64480524224231        0.27198319120978
H          158.39981223922160        4.54993295900633        0.35188334354984
H          156.48704318829724        0.80604690679854       -0.03075661229229
H          156.81485769165522        5.22419124643001       -1.65519774822623
H          156.79872074890008        8.77746318492571       -1.50138674091064
H          155.20700042310941        9.38883771073302        1.14316487838256
H          154.05164719867719        7.08819754922082        2.95564958435205
H          154.59290224772397        5.02258651159494        2.02504829593193
H          153.06580730127001        4.54520013373236       -0.09367987548166
H          151.20135069285797        2.60782047805387       -0.14649711612949
C          170.91259560787250        0.00970821208241       -0.01333984195434
C          171.53525246241634       -1.25421698986890       -0.00515031634525
C          170.88037010054484       -2.51142169706892        0.04503339798992
C          171.83976332900090       -3.48696005948131        0.01673275253574
C          173.10849857106606       -2.85190884927338       -0.06240258473593
N          172.87380082303918       -1.50250363410113       -0.06079483922287
C          174.36539013941859       -3.46768276695155       -0.12046711291925
C          174.37634373797451       -4.95069033237150       -0.15810344577216
C          175.01684099632809       -5.67397421933138        0.84885737736974
C          175.03262673400866       -7.06590234790068        0.83240220989853
O          175.64392926782648       -7.78054509505395        1.81235802791837
C          174.40683156429373       -7.75442726533466       -0.21211611491415
O          174.40950101074017       -9.11138256735042       -0.25930239133506
C          173.77150574676816       -7.02303529527990       -1.21935841148193
O          173.18302443289508       -7.75818418276483       -2.21563107794540
C          173.74531865947350       -5.63552290945478       -1.19862972141097
C          175.58990972918514       -2.79794560925597       -0.14512575898790
C          176.87437977410499       -3.46091279949766       -0.27997618643174
C          177.81098844073776       -2.49015844794035       -0.25034163982491
N          175.76670754420206       -1.44993525366260       -0.06028823121626
C          177.09673167095977       -1.23714430749533       -0.10787103881916
C          177.75356271709231        0.00749289785436       -0.01955090252050
C          177.13139220418620        1.26803989480923        0.07157171959872
C          177.78679065009783        2.51972234533051        0.20075433776535
C          176.82785703030336        3.49480559746434        0.23845767565703
C          175.55851924391590        2.86595469775075        0.12234255652380
N          175.79279521210296        1.51920770212522        0.03647987232405
C          174.30169246295503        3.48337226583797        0.10828820891556
C          174.29033777827803        4.96618585605909        0.17366483408941
C          174.91779848228484        5.71890889289778       -0.81946993337262
C          174.90413542420796        7.10740995134077       -0.75548109285492
O          175.50403154932698        7.84737497101372       -1.71914133332314
C          174.26885928303969        7.74833673422849        0.30951297875411
O          174.27573992073957        9.11744100781291        0.34859870035708
C          173.64590479154833        6.99664167937241        1.30275014815448
O          173.04800993105411        7.69552217333985        2.31794639421321
C          173.65099944195848        5.60899319830456        1.23743003712430
C          173.07700921054399        2.81662437134279        0.04026185553724
C          171.79256608646526        3.48737117053384       -0.04878629257351
C          170.85553728633511        2.51704572850996       -0.08142539997726
C          171.56949131884619        1.25721404830127       -0.02214089929317
N          172.89979802305552        1.46622104722504        0.03715429338631
H          169.81209902437510       -2.64422969706505        0.10229487722057
H          171.68329659329592       -4.55249346404021        0.05763294963931
H          173.59956362857338       -0.79412834904658       -0.08925258243661
H          175.49344054997800       -5.15056302102823        1.67000573857932
H          176.04340244635074       -7.19833965762867        2.47190455666562
H          173.92925809827696       -9.38888898356699       -1.05610715524824
H          172.77578704349895       -7.18211328587888       -2.87547575060277
H          173.25946009333185       -5.09188701979094       -2.00038607809553
H          177.01825965635948       -4.52270640014170       -0.39730652144082
H          178.88237599508170       -2.58575776810692       -0.32511671728062
H          178.85531438632137        2.64842918334387        0.26210713027391
H          176.98451196343970        4.55565740693487        0.34499055402330
H          175.06696099417221        0.81430087543384       -0.03772824648886
H          175.39902826414394        5.23362920200401       -1.65877849648712
H          175.38421121123574        8.78676336265562       -1.50235881702709
H          173.79240731280666        9.39681989864332        1.14246838586400
H          172.63604245001153        7.09525967862232        2.95318953419128
H          173.17672112244449        5.03014366004407        2.02117504565607
H          171.64896414337863        4.55464516643934       -0.09669780338508