193
 energy: -366.060951155969 gnorm: 3.582742845278 xtb: 6.5.1 (b24c23e)
Co          32.88039600000000        0.04181000000000       -0.41644000000000
C           29.53594000000000        0.19760500000000       -0.32800600000000
C           30.18736100000000        1.35983600000000       -0.22687500000000
C           29.52461100000000        2.65642200000000       -0.15567800000000
C           30.45629300000000        3.58344300000000       -0.03226600000000
C           31.76760500000000        2.92069000000000       -0.00565400000000
N           31.60359800000000        1.50827000000000       -0.13949200000000
C           32.95406400000000        3.54607400000000        0.14274800000000
C           32.98996200000000        5.01625400000000        0.31874400000000
C           32.50117300000000        5.60266300000000        1.49742100000000
C           32.54554900000000        6.99798400000000        1.67352600000000
C           32.02597000000000        7.61914600000000        2.91178800000000
O           32.07683200000000        9.00073100000000        3.07873700000000
O           31.53247000000000        6.90504400000000        3.82634500000000
C           33.09310200000000        7.79739800000000        0.65500200000000
C           33.58688900000000        7.21357400000000       -0.51456600000000
C           33.53806300000000        5.82878100000000       -0.68326900000000
C           34.25204200000000        2.82139600000000        0.14911800000000
C           35.52970700000000        3.43791700000000        0.52672000000000
C           36.47276599999999        2.52818300000000        0.38896400000000
N           34.40628899999999        1.58141600000000       -0.20158000000000
C           35.80395100000000        1.31922000000000       -0.07588400000000
C           36.40890999999999        0.16452000000000       -0.39865100000000
C           35.65628800000000       -1.02669600000000       -0.85066100000000
C           36.19603900000000       -2.04827100000000       -1.50333900000000
C           35.16238600000000       -3.05280100000000       -1.66234700000000
C           34.06063000000000       -2.57979700000000       -1.09133500000000
N           34.28258400000000       -1.27577100000000       -0.55216700000000
C           32.78906000000000       -3.33738500000000       -0.96668600000000
C           32.82497000000000       -4.81222700000000       -1.12213900000000
C           33.56964500000000       -5.59286500000000       -0.22662000000000
C           33.62126300000000       -6.97943000000000       -0.37882800000000
C           32.93551600000000       -7.59762500000000       -1.42741500000000
C           32.19058200000000       -6.83052900000000       -2.34119800000000
C           31.46588300000000       -7.47931200000000       -3.45613000000000
O           30.72833300000000       -6.71252300000000       -4.35464900000000
O           31.50846400000000       -8.73088500000000       -3.60314800000000
C           32.14480500000000       -5.43410100000000       -2.18253200000000
C           31.62126900000000       -2.71551700000000       -0.71403300000000
C           30.31979100000000       -3.35707100000000       -0.53520900000000
C           29.44897000000000       -2.38050100000000       -0.36826700000000
C           30.18572300000000       -1.11907600000000       -0.42598100000000
N           31.45240200000000       -1.30210100000000       -0.62718000000000
H           28.45235100000000        0.21492800000000       -0.33734800000000
H           28.45939500000000        2.84353900000000       -0.20103900000000
H           30.25850600000000        4.64524800000000        0.03450400000000
H           32.08925800000000        4.96707500000000        2.27246000000000
H           31.72358100000000        9.43626700000000        3.92242500000000
H           33.14202000000000        8.87376500000000        0.76125900000000
H           34.00905100000000        7.83683000000000       -1.29229300000000
H           33.92517000000000        5.38856500000000       -1.59411800000000
H           35.69104200000000        4.45389600000000        0.86238400000000
H           37.52513700000000        2.67988400000000        0.58878000000000
H           37.22238800000000       -2.13585500000000       -1.83377400000000
H           35.27984500000000       -4.01907400000000       -2.13554600000000
H           34.10653500000000       -5.12666300000000        0.59052700000000
H           34.19480899999999       -7.57728100000000        0.31770100000000
H           32.99063900000000       -8.67476000000000       -1.52370200000000
H           30.22832100000000       -7.14671600000000       -5.12126200000000
H           31.58515700000000       -4.82393900000000       -2.88145600000000
H           30.08772300000000       -4.41392500000000       -0.53430300000000
H           28.38546300000000       -2.50544200000000       -0.21244600000000
Co          57.34129899999999        0.28632100000000       -0.37544100000000
C           60.68575499999999        0.11020100000000       -0.34266200000000
C           60.03433400000000       -1.02145100000000       -0.62616100000000
C           60.69708299999999       -2.27034600000000       -0.98178200000000
C           59.76540100000000       -3.18691900000000       -1.16749900000000
C           58.45408900000000       -2.56909500000000       -0.92616400000000
N           58.61809699999999       -1.19026900000000       -0.59197400000000
C           57.26762999999999       -3.20868100000000       -0.98986800000000
C           57.23173200000000       -4.65585800000000       -1.30304400000000
C           57.72052099999999       -5.59465900000000       -0.38011100000000
C           57.67614499999999       -6.97110900000000       -0.66876600000000
C           58.19572399999999       -7.96219600000000        0.29915900000000
O           58.14486300000000       -9.32267300000000        0.00632700000000
O           58.68922500000000       -7.58546300000000        1.39662300000000
C           57.12859200000000       -7.39457400000000       -1.89234000000000
C           56.63480600000000       -6.46118900000000       -2.80750600000000
C           56.68363099999999       -5.09710700000000       -2.51528600000000
C           55.96965200000000       -2.52571500000000       -0.74746900000000
C           54.69198700000000       -3.23168400000000       -0.59161700000000
C           53.74892799999999       -2.32677300000000       -0.42509900000000
N           55.81540499999999       -1.23916300000000       -0.67452500000000
C           54.41774300000000       -1.03230700000000       -0.47018100000000
C           53.81278499999999        0.16452000000000       -0.39865100000000
C           54.56540600000000        1.43802200000000       -0.43738500000000
C           54.02565600000000        2.61661600000000       -0.72114500000000
C           55.05930900000000        3.61807100000000       -0.54379600000000
C           56.16106400000000        2.98468300000000       -0.15830100000000
N           55.93911100000000        1.57611100000000       -0.07397200000000
C           57.43263399999999        3.66017700000000        0.20664300000000
C           57.39672500000000        5.10506200000000        0.54076000000000
C           56.65205000000000        5.55090100000000        1.64193100000000
C           56.60043100000000        6.91127800000000        1.95032100000000
C           57.28617800000000        7.83769300000000        1.16072900000000
C           58.03111300000000        7.41061200000000        0.04671000000000
C           58.75581199999999        8.38758300000000       -0.79562000000000
O           59.49336200000000        7.95581400000000       -1.89511000000000
O           58.71323000000000        9.61865800000000       -0.52635600000000
C           58.07689000000000        6.03880500000000       -0.25879200000000
C           58.60042500000000        2.98991000000000        0.24263500000000
C           59.90190300000000        3.53804700000000        0.62094200000000
C           60.77272500000000        2.56043500000000        0.46021400000000
C           60.03597100000000        1.38682700000000       -0.00579900000000
N           58.76929200000000        1.62546900000000       -0.13629500000000
H           61.76934299999999        0.09687300000000       -0.35714400000000
H           61.76229899999999       -2.43243300000000       -1.08569700000000
H           59.96318800000000       -4.21243000000000       -1.45072300000000
H           58.13243700000000       -5.24663900000000        0.55985800000000
H           58.49811300000000      -10.00958500000000        0.66180700000000
H           57.07967400000000       -8.44673100000000       -2.14298600000000
H           56.21264400000000       -6.79667500000000       -3.74599200000000
H           56.29652400000000       -4.38386400000000       -3.23272700000000
H           54.53065200000000       -4.30158500000000       -0.60570700000000
H           52.69655699999999       -2.53535400000000       -0.28569400000000
H           52.99930600000000        2.80719200000000       -1.00494000000000
H           54.94185000000000        4.68584400000000       -0.67593300000000
H           56.11516000000000        4.84365800000000        2.26231800000000
H           56.02688499999999        7.24923500000000        2.80376400000000
H           57.23105500000000        8.88732300000000        1.42105200000000
H           59.99337400000000        8.61631500000000       -2.47816800000000
H           58.63653700000000        5.68999200000000       -1.11851300000000
H           60.13397199999999        4.53680200000000        0.96652600000000
H           61.83623100000000        2.62771600000000        0.64826600000000
C           38.64007399999999        0.17669100000000       -0.39628400000000
C           37.38780299999999        0.15751000000000       -0.40063300000000
C           39.95374199999999        0.17592500000000       -0.39435200000000
C           41.45687600000000        0.15751000000000       -0.40063300000000
C           50.11063800000000        0.17669100000000       -0.39628400000000
C           48.85836699999999        0.15751000000000       -0.40063300000000
C           51.42430600000000        0.17592500000000       -0.39435200000000
C           52.92743899999999        0.15751000000000       -0.40063300000000
Co          44.89548200000000       -0.29179600000000        0.20752200000000
C           41.97350500000000       -0.35509100000000        0.86291400000000
C           42.31041199999999       -1.36567000000000        0.06063300000000
C           42.00692800000000       -1.42242400000000       -1.37107600000000
C           42.84948400000000       -2.26453300000000       -1.94972800000000
C           43.82220299999999       -2.68763100000000       -0.93957500000000
N           43.46158700000000       -2.15644500000000        0.33275600000000
C           45.04676100000000       -3.17254000000000       -1.21352000000000
C           45.33093500000000       -3.86667600000000       -2.49775600000000
C           44.46452899999999       -4.87026300000000       -2.96880900000000
C           44.72769599999999       -5.54011200000000       -4.17788700000000
C           43.81200600000000       -6.59177500000000       -4.67310600000000
O           44.08640500000000       -7.25682500000000       -5.86550200000000
O           42.77543600000000       -6.89497800000000       -4.02212400000000
C           45.87604300000000       -5.19865200000000       -4.91128800000000
C           46.74339899999999       -4.20859100000000       -4.44565000000000
C           46.47612800000000       -3.54632200000000       -3.24663200000000
C           46.17785300000000       -2.77267500000000       -0.35097600000000
C           47.31118500000000       -3.62274400000000        0.01814500000000
C           48.21828000000000       -2.84753100000000        0.59382000000000
N           46.39269800000000       -1.53246200000000       -0.04692900000000
C           47.67795300000000       -1.48955600000000        0.56060700000000
C           48.33528800000000       -0.35509100000000        0.86291400000000
C           47.72627800000000        0.98105400000000        0.64119300000000
C           48.39802900000000        2.11787200000000        0.50518500000000
C           47.42013499999999        3.17587300000000        0.27879500000000
C           46.21419800000000        2.61592200000000        0.30491000000000
N           46.32533400000000        1.21009400000000        0.52825300000000
C           44.91364899999999        3.33921100000000        0.15689800000000
C           44.90594100000000        4.81790000000000        0.06778500000000
C           44.41795300000000        5.45318200000000       -1.08334400000000
C           44.40905100000000        6.84654500000000       -1.16566000000000
C           44.88637799999999        7.61659400000000       -0.10219800000000
C           45.37894100000000        6.99717700000000        1.06061200000000
C           45.88538900000000        7.80772500000000        2.19005400000000
O           46.37379500000000        7.18647800000000        3.33659100000000
O           45.88008099999999        9.06699600000000        2.12544900000000
C           45.38317000000000        5.59308800000000        1.13683800000000
C           43.74476800000000        2.66554800000000        0.16912300000000
C           42.39331300000000        3.22472800000000        0.25762800000000
C           41.57665400000000        2.19753600000000        0.45820500000000
C           42.39617400000000        0.98626900000000        0.45652600000000
N           43.64823200000000        1.25742900000000        0.30147400000000
H           41.23416000000000       -0.86523200000000       -1.88468400000000
H           42.88545000000000       -2.46436400000000       -3.01274400000000
H           43.58968100000000       -5.13193900000000       -2.38555000000000
H           43.46589999999999       -7.97784800000000       -6.21386000000000
H           46.10586299999999       -5.69621200000000       -5.84503500000000
H           47.62557000000000       -3.95190500000000       -5.01785700000000
H           47.15785600000000       -2.77461900000000       -2.91135500000000
H           47.41021400000000       -4.68533400000000       -0.15988400000000
H           49.18336600000000       -3.17318300000000        0.95840000000000
H           49.47262900000000        2.23848400000000        0.53348900000000
H           47.64225900000000        4.22312300000000        0.12361000000000
H           44.04750800000000        4.86821700000000       -1.91635100000000
H           44.03195200000000        7.33170200000000       -2.05671400000000
H           44.86952999999999        8.69570100000000       -0.19048100000000
H           46.72261499999999        7.73222900000000        4.11549100000000
H           45.75250800000000        5.09634600000000        2.02608700000000
H           42.10171600000000        4.26661200000000        0.23479800000000
H           40.50785100000000        2.25975600000000        0.61405200000000
193
 energy: -367.032059745303 gnorm: 0.661151162693 xtb: 6.5.1 (b24c23e)
Co          32.88287114444238        0.04647427154249       -0.41494383909419
C           29.53665193200393        0.18980671101517       -0.32843817052747
C           30.19175184571819        1.36164505948106       -0.22658423025534
C           29.52350111982769        2.65341987749102       -0.15605788208059
C           30.46030135647166        3.58469577824722       -0.03195425851539
C           31.76550503644405        2.91536944123692       -0.00637669464101
N           31.59861834710011        1.51162330528926       -0.14067310813661
C           32.96190502721804        3.54440917693350        0.14361691345422
C           32.99070339606056        5.01743159698404        0.31995248900862
C           32.50130780949497        5.60423666816979        1.49656926553908
C           32.54594816872400        7.00044788347223        1.67305550425453
C           32.02116909909763        7.61809940521316        2.92201424922588
O           32.07682284434779        8.99665075895460        3.07789775814826
O           31.53624158679714        6.91139876926388        3.81944939939441
C           33.09340694489800        7.79646111928388        0.65416293405119
C           33.58605190949198        7.21281200874993       -0.51308361501656
C           33.53786221794034        5.82978645895604       -0.68197933984870
C           34.24732269683635        2.83205848568282        0.15068731031168
C           35.52226812045588        3.44331431573406        0.52660176352354
C           36.47291222336678        2.52205631456918        0.38694066634278
N           34.40741783647029        1.57737833441559       -0.20139340637945
C           35.77793367724367        1.33599736885006       -0.07035030327847
C           36.30015895038523        0.15785874126127       -0.40005720661462
C           35.63494680042313       -1.02906857212225       -0.84924150938922
C           36.19624930944024       -2.05670127236691       -1.50662033933828
C           35.17166875608356       -3.05355977299425       -1.66444701544370
C           34.05283731836701       -2.57650842712743       -1.08603171286121
N           34.27947840810808       -1.27853567002138       -0.55612157738262
C           32.79410925386879       -3.33465013722047       -0.96698909900105
C           32.82611099768806       -4.81232421665272       -1.12317199477094
C           33.56928476004414       -5.59374655340489       -0.22781248024389
C           33.61984728389168       -6.97862408462134       -0.38046696037739
C           32.93520049608388       -7.59631693784925       -1.42765143889624
C           32.18949837132594       -6.82846650522172       -2.34229220340615
C           31.46298547523712       -7.48863610464669       -3.46182127618113
O           30.73057841745899       -6.71447722077701       -4.35179016506415
O           31.50763559060408       -8.72076068951643       -3.60257251059010
C           32.14529996237435       -5.43424104403859       -2.18117659014371
C           31.62013083759206       -2.71461378895508       -0.71390447069730
C           30.32368915757541       -3.35809054386259       -0.53580597029357
C           29.44549364392260       -2.37558452442852       -0.36783190803070
C           30.17787957147087       -1.11421172967987       -0.42534797315245
N           31.45669996771338       -1.30474853242466       -0.62598222886544
H           28.45251194125940        0.21403343095929       -0.33725348519378
H           28.45946207799249        2.84189793909491       -0.20114295117873
H           30.26048882853511        4.64531314696311        0.03466653551543
H           32.08929547335735        4.96764055766175        2.27258981650982
H           31.72539533932198        9.42950168067623        3.91720442222498
H           33.14180217830535        8.87365139545113        0.76172732176102
H           34.00895331804310        7.83675858515159       -1.29214011066532
H           33.92501170517651        5.38836156290567       -1.59382574425222
H           35.68946337556967        4.45454018492531        0.86242964029631
H           37.52487337701891        2.67745248801738        0.58814538532997
H           37.22225961622191       -2.13601493322000       -1.83397865033101
H           35.28064370644533       -4.01876525842972       -2.13591608270010
H           34.10633592305126       -5.12646542165241        0.59026682451565
H           34.19459688078015       -7.57719719510911        0.31744917961599
H           32.99016465592312       -8.67463575373381       -1.52437697327848
H           30.23343232963058       -7.14670503338411       -5.11417993800011
H           31.58525179646983       -4.82421935509525       -2.88143651639144
H           30.08956168163806       -4.41377957885759       -0.53456497095425
H           28.38509148315256       -2.50400393371489       -0.21232508994936
Co          57.33919128271460        0.28132826071134       -0.37573102229231
C           60.68510092156578        0.11787799897841       -0.34047581244244
C           60.02979410041502       -1.02332159923100       -0.62645774762262
C           60.69815607619419       -2.26735534521890       -0.98115220184409
C           59.76134536531473       -3.18822396333287       -1.16759127599632
C           58.45599860841674       -2.56419717840102       -0.92521953934837
N           58.62319000216311       -1.19279885887267       -0.59407260978782
C           57.26023980505129       -3.20744065871180       -0.98862012732613
C           57.23099626441905       -4.65732552586394       -1.30236078762319
C           57.72038120777377       -5.59584233999680       -0.38143316028164
C           57.67574647050854       -6.97328320325258       -0.67001511580924
C           58.20051870283516       -7.96451627137461        0.30915367580848
O           58.14487084014176       -9.31856024523540        0.00686401970032
O           58.68545679667633       -7.58922827468756        1.38804221056811
C           57.12828776831392       -7.39341963159275       -1.89282636488521
C           56.63563773769315       -6.46094860707764       -2.80585639083609
C           56.68382778691998       -5.09849488362745       -2.51440732629691
C           55.97375851802654       -2.53697360556770       -0.74912932126161
C           54.70019396954459       -3.23687962391145       -0.59350945111783
C           53.74884547676132       -2.31922467917925       -0.42474851934915
N           55.81515525134295       -1.23575631355759       -0.67268408587603
C           54.44966666768266       -1.05358356279099       -0.47137055980965
C           53.96997461106963        0.17307323300194       -0.39795736117521
C           54.59273483050558        1.44324966996170       -0.43502994404338
C           54.02534524029002        2.62506051321769       -0.72170046909696
C           55.05039489879760        3.61947489817151       -0.54556353904757
C           56.16840429076618        2.98003970487517       -0.15452976406301
N           55.94280250713416        1.58022650313897       -0.07668341795782
C           57.42798243641338        3.65772269270175        0.20552316215456
C           57.39556514714792        5.10546200639270        0.53989839996069
C           56.65240790101488        5.55214954784836        1.64110579744039
C           56.60183549386502        6.91105388829451        1.94850736111008
C           57.28649748896797        7.83654024474189        1.16007427065170
C           58.03219406560277        7.40901047582944        0.04500962272235
C           58.75873223173217        8.39825836534250       -0.79796764778911
O           59.49110128817748        7.95673164878832       -1.89176182996946
O           58.71404402030713        9.60889187364903       -0.52911279137739
C           58.07638533860164        6.03848324629973       -0.25746137846700
C           58.60138503616546        2.98912780369928        0.24238926390142
C           59.89812093173082        3.53921004009213        0.62072310036109
C           60.77617248381714        2.55575329695652        0.45904416969613
C           60.04380702875787        1.38186647500961       -0.00682758739999
N           58.76502084198958        1.62749930959949       -0.13432483873063
H           61.76918684317059        0.09770103207348       -0.35676191043521
H           61.76222604615951       -2.43084014739343       -1.08526323317274
H           59.96120745905809       -4.21254710403414       -1.45058982755668
H           58.13240166051527       -5.24721201156299        0.55979418389772
H           58.49630051328016      -10.00148280076817        0.65907935330923
H           57.07989186762948       -8.44677771452290       -2.14250682852339
H           56.21274200247562       -6.79665901561798       -3.74582616392674
H           56.29667917099215       -4.38377027427204       -3.23238437156600
H           54.53222616835578       -4.30215936370292       -0.60596561299325
H           52.69680997135816       -2.53255988254066       -0.28552527084661
H           52.99936049652805        2.80716848716370       -1.00506640593091
H           54.94099722505721        4.68563780931539       -0.67631434225144
H           56.11535902647709        4.84355852400303        2.26201365346679
H           56.02709828121367        7.24924180186925        2.80350496061060
H           57.23153209826496        8.88742666033615        1.42037502853702
H           59.98826806405620        8.61399409740752       -2.47147782011257
H           58.63644475372930        5.69024829816998       -1.11839899510832
H           60.13214173232173        4.53675706003723        0.96623436667874
H           61.83659865757262        2.62632768664954        0.64791590854483
C           38.68910564142310        0.17591163301164       -0.39726804015704
C           37.49660670704110        0.15113783266589       -0.40204112103928
C           39.96261507147028        0.17785568195683       -0.39659555413287
C           41.43316537181011        0.16396882396160       -0.39692850940136
C           50.13438180696994        0.18119199912964       -0.40242145136216
C           48.85527849648393        0.15756442739082       -0.39517904258588
C           51.40799233971384        0.17628484166730       -0.39522320309904
C           52.72167020726576        0.16207494981140       -0.39973782656206
Co          44.90097984064250       -0.28626590139630        0.20908066712294
C           41.96688590526832       -0.35298437594921        0.86852585350107
C           42.32223754687999       -1.37889219617963        0.05991984383440
C           42.00273913154167       -1.42493518433287       -1.37155356767934
C           42.85355515630731       -2.26789369261065       -1.95101326389220
C           43.81787118549261       -2.68522354703816       -0.93739881992589
N           43.46274465632379       -2.15129921286323        0.32368519055820
C           45.05221672435437       -3.17432695934786       -1.21476723191931
C           45.33113880928288       -3.86750309586553       -2.49714152342812
C           44.46522716240364       -4.87015885391241       -2.97027228965549
C           44.72865855675107       -5.54072054669497       -4.17984434693017
C           43.80260506595993       -6.59802324460087       -4.67178546085188
O           44.08587336106424       -7.25458568250309       -5.86197099023540
O           42.78349779082011       -6.89302689533088       -4.02789097412324
C           45.87650679275997       -5.19788381756481       -4.91068998289882
C           46.74185585329076       -4.20899612165213       -4.44465890444295
C           46.47570029147595       -3.54764205818718       -3.24731579030745
C           46.17765849593599       -2.78311445127483       -0.35535064219366
C           47.30501588619677       -3.62564254339056        0.01387611078678
C           48.21943339465427       -2.84151041794162        0.59452180662549
N           46.39141196295089       -1.53066943436640       -0.03804235147791
C           47.67061856971110       -1.50100924437435        0.56447972423562
C           48.33053003571045       -0.35081508942208        0.85812209215976
C           47.71579826839375        0.97406977909702        0.64131424974659
C           48.39959601587747        2.13613584026926        0.50549891971387
C           47.43232673398128        3.17572361430068        0.27942572515825
C           46.20455199246446        2.60854232505005        0.30570468858961
N           46.32462677527740        1.21169366028242        0.52393082530607
C           44.92022536617300        3.33647385205511        0.15797162761252
C           44.90732855945275        4.81812777937515        0.06797521861398
C           44.41818460217763        5.45420565730994       -1.08212983719247
C           44.40983447594548        6.84602906861381       -1.16356406034156
C           44.88657937224725        7.61538599194026       -0.10170054324986
C           45.37959645812784        6.99533568610326        1.06229350351212
C           45.88753586863813        7.81778128738093        2.19468119126138
O           46.37229898071001        7.18799705564874        3.33304740651492
O           45.88044563888882        9.05694236611583        2.12667717853731
C           45.38306500579158        5.59331018504351        1.13552489364345
C           43.74423799311030        2.66229467031186        0.17071980830445
C           42.39632902986231        3.22568509560385        0.25714452963011
C           41.57372198597481        2.20134249947660        0.46455793828396
C           42.38704112961591        0.98853528951112        0.45870961287140
N           43.65716541183168        1.25992218819520        0.29645547194540
H           41.23363888668342       -0.86949483877899       -1.88733937555655
H           42.88665735996646       -2.46546010535776       -3.01251809190788
H           43.58971948486926       -5.13224766903894       -2.38591023185000
H           43.46849993451391       -7.97175788810164       -6.20816956114305
H           46.10542736505107       -5.69651017214761       -5.84494988042090
H           47.62539802137103       -3.95192975188484       -5.01775634127463
H           47.15755449934888       -2.77468405152033       -2.91097263537580
H           47.40877212962580       -4.68556001149228       -0.16031690345458
H           49.18309659967338       -3.17105364992231        0.95901622652614
H           49.47231575973053        2.24087828489013        0.53446226745113
H           47.64329827746736        4.22283564685409        0.12352971642047
H           44.04770402936300        4.86805212473396       -1.91606167220151
H           44.03209809995668        7.33167688763458       -2.05642985977046
H           44.86987681118706        8.69568530265077       -0.18973092276313