120
 energy: -205.519281174084 gnorm: 2.560586053964 xtb: 6.5.1 (b24c23e)
C           13.07042300000000        0.01046400000000        0.06458400000000
C           13.79529100000000        1.20379200000000       -0.62979300000000
C           13.18048600000000        2.22914700000000       -1.31151900000000
C           14.20150000000000        3.12109600000000       -1.72990100000000
C           15.40590000000000        2.61250100000000       -1.28379700000000
N           15.14969800000000        1.41973800000000       -0.65478700000000
C           16.83250900000000        3.28691400000000       -1.43815600000000
C           16.87828000000000        4.68471700000000       -1.92865600000000
C           17.14394400000000        4.94417200000000       -3.27993900000000
C           17.17972500000000        6.25672700000000       -3.75341900000000
C           16.94592400000000        7.30800700000000       -2.86939100000000
O           16.97357600000000        8.60533900000000       -3.29686700000000
C           16.67834100000000        7.06784300000000       -1.52580700000000
C           16.64441700000000        5.75374600000000       -1.05457300000000
C           17.96231700000000        2.60608700000000       -1.10480400000000
C           19.27132800000000        3.22330200000000       -1.16899400000000
C           20.17348400000000        2.33654700000000       -0.76572300000000
N           18.15561900000000        1.32527600000000       -0.65777300000000
C           19.48996500000000        1.10104200000000       -0.43669400000000
C           20.15794900000000        0.00000000000000        0.00000000000000
C           19.37785900000000       -1.34588100000000        0.31612800000000
C           19.91489800000000       -2.61853700000000        0.31131300000000
C           18.89010600000000       -3.51710000000000        0.69844400000000
C           17.75244400000000       -2.77011100000000        0.91764900000000
N           18.04585200000000       -1.45658900000000        0.63469900000000
C           16.34366400000000       -3.32643900000000        1.38984900000000
C           16.30997400000000       -4.63985700000000        2.07190200000000
C           16.68868500000000       -4.75098300000000        3.41533600000000
C           16.66898700000000       -5.99403000000000        4.05169900000000
C           16.27210100000000       -7.12212500000000        3.34165500000000
O           16.26287000000000       -8.32206200000000        3.99479300000000
C           15.89492600000000       -7.03121000000000        2.00358100000000
C           15.91670000000000       -5.78760500000000        1.37008100000000
C           15.21999700000000       -2.59733200000000        1.16276100000000
C           13.89977200000000       -3.03826000000000        1.57782800000000
C           13.01495600000000       -2.12001200000000        1.20118300000000
C           13.73539600000000       -1.05720000000000        0.54401300000000
N           15.05531300000000       -1.38426900000000        0.55401000000000
H           11.99378200000000        0.06517900000000        0.17265000000000
H           12.11878900000000        2.33235300000000       -1.47448500000000
H           14.06941200000000        4.04378000000000       -2.27462700000000
H           15.85372100000000        0.79794800000000       -0.26432200000000
H           17.32649899999999        4.10705700000000       -3.95076600000000
H           17.39062900000000        6.42823700000000       -4.80241000000000
H           17.19105400000000        8.59134600000000       -4.24229200000000
H           16.49842000000000        7.89183400000000       -0.84410800000000
H           16.43898000000000        5.54686000000000       -0.00671600000000
H           19.48624800000000        4.23216600000000       -1.47311700000000
H           21.22964100000000        2.52519000000000       -0.70514000000000
H           20.93475600000000       -2.87537300000000        0.06869000000000
H           18.97381700000000       -4.58767900000000        0.80930100000000
H           17.36522200000000       -0.70144000000000        0.61255300000000
H           16.99598800000000       -3.85853900000000        3.95580100000000
H           16.96161100000000       -6.07322200000000        5.09293900000000
H           15.95361400000000       -8.99029700000000        3.36313100000000
H           15.58294500000000       -7.90083900000000        1.43732300000000
H           15.62453300000000       -5.69167800000000        0.32618400000000
H           13.67170500000000       -3.94735200000000        2.10441200000000
H           11.95302500000000       -2.15239100000000        1.36408500000000
C           30.40510500000000        0.04865300000000        0.04374400000000
C           29.68023700000000       -1.18096700000000        0.67162000000000
C           30.29504200000000       -2.30906300000000        1.16507800000000
C           29.27402800000000       -3.14351100000000        1.68882700000000
C           28.06962800000000       -2.49316500000000        1.50247300000000
N           28.32583000000000       -1.31882500000000        0.83970500000000
C           26.64301900000000       -2.98787400000000        1.98612700000000
C           26.59724800000000       -4.15666800000000        2.89627400000000
C           26.33158500000000       -5.43345800000000        2.38335300000000
C           26.29580300000000       -6.54181400000000        3.23101400000000
C           26.52960400000000       -6.36715900000000        4.59343500000000
O           26.50195200000000       -7.42859100000000        5.45318500000000
C           26.79718700000000       -5.10728100000000        5.11841500000000
C           26.83111100000000       -3.99998000000000        4.26824100000000
C           25.51321100000000       -2.33916400000000        1.59392400000000
C           24.20420000000000       -2.72709400000000        2.07826300000000
C           23.30204500000000       -1.90816500000000        1.55070600000000
N           25.31990900000000       -1.27022700000000        0.75864700000000
C           23.98556300000000       -0.96297900000000        0.68968600000000
C           23.31758000000000        0.00000000000000        0.00000000000000
C           24.09766900000000        0.99405600000000       -0.96082500000000
C           23.56063000000000        1.67858500000000       -2.03371700000000
C           24.58542200000000        2.49032900000000       -2.57993700000000
C           25.72308400000000        2.27051500000000       -1.83312700000000
N           25.42967600000000        1.32187000000000       -0.88156400000000
C           27.13186400000000        2.96863300000000       -2.04550500000000
C           27.16555400000000        4.25286400000000       -2.78104300000000
C           26.78684300000000        5.44279900000000       -2.14762500000000
C           26.80654100000000        6.65053000000000       -2.84870300000000
C           27.20342700000000        6.66375400000000       -4.18159000000000
O           27.21265800000000        7.86226800000000       -4.83733600000000
C           27.58060200000000        5.48926200000000       -4.82910500000000
C           27.55882900000000        4.28363700000000       -4.12600800000000
C           28.25553100000000        2.38316800000000       -1.55520300000000
C           29.57575600000000        2.97080100000000       -1.70144300000000
C           30.46057200000000        2.15722400000000       -1.13299400000000
C           29.74013200000000        1.02951200000000       -0.59475000000000
N           28.42021500000000        1.21488200000000       -0.86440100000000
H           31.48174600000000        0.10993100000000        0.14822800000000
H           31.35673900000000       -2.50195600000000        1.16369900000000
H           29.40611600000000       -4.10084200000000        2.17006500000000
H           27.62180700000000       -0.65402600000000        0.52805100000000
H           26.14902900000000       -5.54468900000000        1.31639500000000
H           26.08489900000000       -7.51679900000000        2.80768900000000
H           26.28447400000000       -8.21610900000000        4.92989000000000
H           26.97710800000000       -4.97980700000000        6.18021800000000
H           27.03654800000000       -3.00680900000000        4.66120200000000
H           23.98928000000000       -3.52871000000000        2.76215600000000
H           22.24588700000000       -1.95928200000000        1.74213100000000
H           22.54077200000000        1.61350400000000       -2.38098500000000
H           24.50171100000000        3.16280100000000       -3.42030000000000
H           26.11030600000000        0.89466700000000       -0.25847600000000
H           26.47954000000000        5.41446100000000       -1.10467000000000
H           26.51391800000000        7.56904600000000       -2.35193400000000
H           27.52191500000000        7.69260100000000       -5.74107800000000
H           27.89258299999999        5.48356500000000       -5.86682800000000
H           27.85099500000000        3.35383300000000       -4.61014200000000
H           29.80382300000000        3.90552000000000       -2.18106600000000
H           31.52250300000000        2.31174100000000       -1.07208600000000
C           21.12680500000000        0.00000000000000        0.00000000000000
C           22.34872300000000        0.00000000000000        0.00000000000000
120
 energy: -206.106544367582 gnorm: 0.595684572614 xtb: 6.5.1 (b24c23e)
C           13.08100259400718        0.02578600105545        0.05577319826946
C           13.79125445423904        1.19360809131339       -0.62429672780956
C           13.18246072389419        2.23247941325284       -1.31220511055745
C           14.19960858908851        3.12065878310518       -1.72846439704087
C           15.41716160968604        2.61622296009446       -1.28480840644747
N           15.14963094950164        1.42017187069440       -0.65395602914611
C           16.81647641284249        3.27726100932569       -1.43557205806154
C           16.87569067039642        4.68259266549752       -1.92858670253663
C           17.14389825486360        4.94436170284505       -3.27835285301935
C           17.17968904323727        6.25420917878153       -3.75193675440946
C           16.94588853450345        7.30828180207718       -2.86920560308167
O           16.97401110971563        8.60292840575292       -3.29798197026947
C           16.67837499441528        7.06521799420101       -1.52460688618725
C           16.64424793896341        5.75354620591901       -1.05604752714306
C           17.96285604704013        2.60874976835222       -1.10532761136484
C           19.27106295361888        3.22922448294208       -1.17113873752174
C           20.17448411676250        2.33538495423595       -0.76512646822379
N           18.14509725326590        1.32526078611755       -0.65800485541169
C           19.44121093832845        1.12318975987923       -0.44706123637252
C           19.98482818968976       -0.01645459490356        0.00501490927064
C           19.35831533323745       -1.34922474495923        0.31782184760693
C           19.91281633880142       -2.61896203046998        0.31310119107756
C           18.89120164718750       -3.51636716779940        0.69936668432614
C           17.73999345777006       -2.77505890984261        0.92110106995667
N           18.04038599612764       -1.46050465188675        0.63747986649963
C           16.35967349241850       -3.31846318369699        1.38400927045119
C           16.31256215870061       -4.63840709479682        2.06999176976020
C           16.68884787323033       -4.75201538784445        3.41422254479026
C           16.66896936729160       -5.99131654765849        4.05063651069974
C           16.27217262267098       -7.12206655114035        3.34193640551609
O           16.26225105326283       -8.32131375663930        3.99239971494203
C           15.89495690558481       -7.02838291339259        2.00272302874993
C           15.91668869230066       -5.78659037015918        1.37130496824810
C           15.21743601636377       -2.59463773543138        1.16235519899536
C           13.89863769763273       -3.04233590440997        1.57997614209570
C           13.01137812416753       -2.12186643491785        1.20268909889099
C           13.73817889988982       -1.05941225305003        0.54555538076904
N           15.06049863887786       -1.38107614193718        0.55196739681724
H           11.99743180718895        0.06775395405517        0.17014839068180
H           12.11969938893493        2.33313861481443       -1.47490984640421
H           14.06893405300688        4.04321411914272       -2.27438892493494
H           15.85311572612180        0.79854830758589       -0.26462979891509
H           17.32624923310732        4.10828930077934       -3.95038655087200
H           17.39048956957933        6.42901549272919       -4.80190961828463
H           17.19087953745357        8.59320621019488       -4.24214968262030
H           16.49864051395277        7.89150427881498       -0.84482622732200
H           16.43910855668196        5.54747646458191       -0.00782400942332
H           19.48549982934263        4.23479542168230       -1.47417784167540
H           21.23140120799335        2.52260020049505       -0.70370312698747
H           20.93385868196946       -2.87487846826448        0.06866887000077
H           18.97452947287037       -4.58707544441223        0.80921779398911
H           17.36538196414111       -0.70248064349935        0.61287555166783
H           16.99575890516531       -3.85972239058748        3.95549283602624
H           16.96128280542093       -6.07349808746166        5.09224858181960
H           15.95385418982818       -8.99143791282085        3.36452337917966
H           15.58319549933798       -7.90103221967439        1.43819002303280
H           15.62489154039221       -5.69224741678815        0.32729650931667
H           13.67261896906736       -3.94984013318920        2.10546951547797
H           11.95079909694838       -2.15176420728401        1.36396216506882
C           30.39452539648746        0.03295313870568        0.05186243876362
C           29.68427353667323       -1.17083448414202        0.66602922821949
C           30.29306731411817       -2.31144310356181        1.16750929757051
C           29.27591939953016       -3.14206633020968        1.68923663731233
C           28.05836640096221       -2.49602944077989        1.50505586483521
N           28.32589705383132       -1.31836084144342        0.84051942580188
C           26.65905162454803       -2.98047823262357        1.97940721327558
C           26.59983736996334       -4.15546017069180        2.89452494394912
C           26.33163063568767       -5.43222677709596        2.38437050304628
C           26.29583896790000       -6.53920531290386        3.22969858887808
C           26.52963946006694       -6.36715191993728        4.59376646160389
O           26.50151693087842       -7.42822420063763        5.45055456407935
C           26.79715300145124       -5.10485151360826        5.11685675363094
C           26.83128006708608       -4.00111185246298        4.26727515275570
C           25.51267198067260       -2.34104504253935        1.59587997928331
C           24.20446512451704       -2.73210226252487        2.08208339905621
C           23.30104456579712       -1.90703453950145        1.55005150568289
N           25.33043076074690       -1.27041372057753        0.75850877911369
C           24.03431704726186       -0.98368083575470        0.70270265081056
C           23.49070006481401        0.01312037090386       -0.01112478129200
C           24.11721266307194        0.99728969403476       -0.96272056523389
C           23.56271165039025        1.68031872409112       -2.03310688167712
C           24.58432636761615        2.49070850820721       -2.57882150443556
C           25.73553454891586        2.27609526062728       -1.83542037568652
N           25.43514200061721        1.32632716901058       -0.88335236597309
C           27.11585450759839        2.95940662793477       -2.04195709181230
C           27.16296587473073        4.25047295386908       -2.78085719530825
C           26.78668014520796        5.44242121337217       -2.14909575388831
C           26.80655869678573        6.64816819486272       -2.84699601075401
C           27.20335536176066        6.66395911353157       -4.18138851190653
O           27.21327701065518        7.85985036226905       -4.83800182438526
C           27.58057108301666        5.48701086201173       -4.82719151991134
C           27.55884018677074        4.28411754199039       -4.12449244730093
C           28.25809199903968        2.38136900141477       -1.55315670470578
C           29.57689030850453        2.97481272872832       -1.70370846700264
C           30.46414983990016        2.15949398703476       -1.13373875227307
C           29.73734911423243        1.03200603718043       -0.59577586058728
N           28.41502936139850        1.21143665551578       -0.86282104678823
H           31.47809619499284        0.10643398874591        0.14904000045865
H           31.35582860469653       -2.50273834568633        1.16412982789934
H           29.40659394163611       -4.10033558748911        2.16971790010015
H           27.62241228164156       -0.65460965276171        0.52838931390544
H           26.14927880216727       -5.54503660274063        1.31763671339462
H           26.08503846157592       -7.51679924102741        2.80861449745031
H           26.28464842646867       -8.21699590900369        4.93153130566116
H           26.97688747723280       -4.98023262496390        6.17955205849393
H           27.03641942962713       -3.00807440473284        4.66112091330911
H           23.99002817931161       -3.53102481219793        2.76379335020072
H           22.24412689614574       -1.95667237227017        1.74073042381772
H           22.54166931593497        1.61321867220654       -2.38058054689548
H           24.50099853243765        3.16240448696034       -3.41983745757018
H           26.11014600519528        0.89550133001459       -0.25917667718624
H           26.47976909047139        5.41484210469640       -1.10583192978859
H           26.51424616227829        7.56861481693945       -2.35253970304037
H           27.52167474125570        7.69438930876788       -5.74128394667884
H           27.89233251839143        5.48439867940805       -5.86652145260032
H           27.85063651319033        3.35507654598174       -4.61001896179094
H           29.80290904615267        3.90775564140590       -2.18258633723817
H           31.52472890740469        2.31129857944572       -1.07162532609259
C           21.20560917881816       -0.00775175517815        0.00270345264927
C           22.26991962768607        0.00646768777886       -0.00505639715553
120
 energy: -206.256578906331 gnorm: 0.341994798122 xtb: 6.5.1 (b24c23e)
C           13.10840017429529        0.05127090814118        0.04051589514172
C           13.79045299073892        1.18157348455526       -0.61768857289823
C           13.18820666125727        2.23813417599759       -1.31019372618110
C           14.19789757700928        3.12001475543121       -1.72274152230707
C           15.43132175588971        2.61901224843422       -1.28478391239804
N           15.15129818880149        1.42111657320907       -0.65187041928685
C           16.77916409042141        3.26337376017062       -1.43297784879047
C           16.86087272378942        4.67460643191237       -1.92846144191768
C           17.14235206394364        4.94190075867185       -3.27354913367252
C           17.18012480637400        6.24882092796111       -3.74770946647431
C           16.94594550497166        7.30575199114204       -2.86842423690192
O           16.97470305950628        8.59754441359227       -3.29953932075948
C           16.67919027406450        7.05947222162527       -1.52335525141097
C           16.64185318522851        5.75000674245271       -1.05889984487611
C           17.94881167753818        2.61796970760524       -1.10853185397616
C           19.26546331766741        3.23917085249290       -1.17508543627392
C           20.16413331358600        2.33403432505702       -0.76461968126404
N           18.09418894698340        1.33848594215519       -0.66186985510531
C           19.37266847698108        1.14102106998308       -0.45178447319045
C           19.85761776684598       -0.04734879923839        0.00786469974047
C           19.32079851339425       -1.34672709274106        0.31376307608722
C           19.90140155565587       -2.61844977119273        0.32129196321229
C           18.89021583573937       -3.51428362597048        0.70563998358243
C           17.71620747834770       -2.78563504267214        0.92763693024571
N           18.01530732034590       -1.47200697865330        0.64352641520535
C           16.38535393736944       -3.30234632267220        1.37269162574237
C           16.32428153931392       -4.63128600791672        2.06187869569907
C           16.69090677676969       -4.75138278322650        3.40878019908922
C           16.66816106989316       -5.98615325465752        4.04708802906636
C           16.27206525121656       -7.11963961966919        3.34057892416163
O           16.26131498958036       -8.31870181264309        3.98747243770747
C           15.89473298856920       -7.02130165885055        2.00162101739273
C           15.91771989201066       -5.78088230348513        1.37255017133390
C           15.21849747275551       -2.58803544789302        1.16211055655436
C           13.89872377015916       -3.04867875737265        1.58299297605152
C           13.00775722952475       -2.12345542891829        1.20447380639270
C           13.74689033881279       -1.05793102511352        0.54682949199865
N           15.07057818753065       -1.37500913819662        0.54970666515423
H           12.01842587640926        0.08081449634682        0.15718936178876
H           12.12463473557874        2.33644231478151       -1.47638276731247
H           14.06685273743114        4.04049918175062       -2.27294553925186
H           15.85333064753006        0.79942646178859       -0.26484042262700
H           17.32508232422038        4.11081019312593       -3.94921221043137
H           17.38991104245191        6.43028897198760       -4.79841693535853
H           17.19044753507120        8.59827993128888       -4.24276322945473
H           16.49963799106310        7.88912010689002       -0.84705742786552
H           16.43877579747537        5.54872244070655       -0.01069854371767
H           19.48256254207144        4.24431975108075       -1.47828679035934
H           21.22856106057900        2.51031289905439       -0.69848805893150
H           20.92507120901389       -2.87110508385639        0.06979678331624
H           18.97787720898699       -4.58504844310364        0.80904827485425
H           17.35424159090256       -0.70738053435277        0.61588639020685
H           16.99570264165979       -3.86255687314621        3.95432618974586
H           16.95988430163706       -6.07332278220992        5.08897179712265
H           15.95432639136311       -8.99533983299945        3.36774538531580
H           15.58434156554498       -7.89932570903806        1.44139937895605
H           15.62606156518860       -5.69321754482262        0.32966620885432
H           13.67679603225005       -3.95832931007149        2.10862946461529
H           11.94482432468609       -2.14929176292986        1.36301765522822
C           30.36712780941546        0.00633308419736        0.06503981817961
C           29.68507503072400       -1.15876546993681        0.65948366421987
C           30.28732139643227       -2.31281116006735        1.17335311246918
C           29.27763042454043       -3.13690506062831        1.69179148130712
C           28.04420629715109       -2.49751809773443        1.50741477014024
N           28.32422984640176       -1.31711791167365        0.84244223011698
C           26.69636398288272       -2.97078282917764        1.96913219880020
C           26.61465535198829       -4.15103367718701        2.88787638810280
C           26.33317658438895       -5.42685548037414        2.38489971278356
C           26.29540325755045       -6.53273500301662        3.22745444199453
C           26.52958250930351       -6.36512625442294        4.59206177424100
O           26.50082501072995       -7.42662067582230        5.44518427404439
C           26.79633770665870       -5.10069024081877        5.11270180094623
C           26.83367481506908       -4.00159547751820        4.26275520500350
C           25.52671639567393       -2.34872832097726        1.60190004751513
C           24.21006480661811       -2.74080314142926        2.08831280915375
C           23.31139508054039       -1.90587754661251        1.54918985832089
N           25.38133913186918       -1.28081961773126        0.76753986165939
C           24.10285962336907       -0.99730076234608        0.71514288357048
C           23.61791047922394        0.03223251524745       -0.03556448185906
C           24.15472957349179        0.99252508880906       -0.96281606584060
C           23.57412644998380        1.68692975354602       -2.02824439036747
C           24.58531220698305        2.49485697545198       -2.57367516533385
C           25.75932054917152        2.28731416233121       -1.84077852041990
N           25.46022070884007        1.33763551317068       -0.88975415679730
C           27.09017408353878        2.94116873074905       -2.03452648687601
C           27.15124654966357        4.23979696562691       -2.77925809956884
C           26.78462128388524        5.43750201450926       -2.15150850631181
C           26.80736708172336        6.64239021650549       -2.84457382887088
C           27.20346276253067        6.66150455060785       -4.18008188100892
O           27.21421312946975        7.85429331449699       -4.83847134165908
C           27.58079502188413        5.48225282086497       -4.82183232333205
C           27.55780870982046        4.28207652675693       -4.11901833120083
C           28.25703054721117        2.37759109704178       -1.54773657750066
C           29.57680423879928        2.98078153394337       -1.70741043456676
C           30.46777072087292        2.16185457462294       -1.13410960475726
C           29.72863767922868        1.03227609934946       -0.59384058165686
N           28.40494981619475        1.20625274850976       -0.85894207038946
H           31.45710212018231        0.08846912864306        0.15301222617345
H           31.35089325439120       -2.50576451767455        1.16611126953571
H           29.40867525377160       -4.09765277208919        2.16821561430436
H           27.62219736762787       -0.65526187493186        0.52901385069230
H           26.15044579156101       -5.54541287964499        1.32039214004500
H           26.08561704961051       -7.51455069388776        2.81157533490842
H           26.28508039713623       -8.22025716455471        4.93546616344716
H           26.97588997117910       -4.98081908065703        6.17633966636604
H           27.03675215736438       -3.01116605409191        4.66061341423381
H           23.99296547707431       -3.53963359862284        2.76958011259396
H           22.24696713027327       -1.94563841605673        1.73321859770228
H           22.55045679571596        1.61212564546573       -2.37679692505677
H           24.49765081005421        3.16116526512908       -3.41822456596121
H           26.12128634383665        0.90068454559903       -0.26166842452721
H           26.47982537010725        5.41539454404143       -1.10884694501651
H           26.51564460092183        7.56576430178388       -2.35416515340995
H           27.52120244826727        7.69921017389989       -5.74282189074561
H           27.89118646294284        5.48617434484042       -5.86334990149438
H           27.84946659013313        3.35759408621588       -4.60955263897789
H           29.79873199992265        3.91500632068832       -2.18801592384726
H           31.53070367432040        2.30916655626814       -1.07005703174991
C           21.11951875021685       -0.02646614698778        0.00465501649717
C           22.35600970556811        0.01823443598219       -0.01973901653334
120
 energy: -206.317901861814 gnorm: 0.211858114607 xtb: 6.5.1 (b24c23e)
C           13.15550641711794        0.07953971505834        0.02228514098331
C           13.80079962930967        1.17428862890985       -0.61281129620391
C           13.19780608257460        2.24720355111903       -1.30355764205656
C           14.19417178696063        3.12203084255273       -1.71182983254057
C           15.44113648552672        2.62186456535062       -1.28253253218280
N           15.15970626842580        1.42293093928681       -0.65040667759611
C           16.72844142873803        3.24963489996459       -1.43088773591146
C           16.82368449451521        4.66214248504196       -1.93100852928345
C           17.13157064727418        4.93396242632361       -3.26797252396017
C           17.18104572100639        6.23904790729399       -3.74072808275772
C           16.94645509935741        7.29897056167060       -2.86697498280936
O           16.97566374407713        8.58873435888637       -3.29963311805319
C           16.68021196808106        7.04976406011957       -1.52235609332944
C           16.62895442768752        5.74182432203852       -1.06275415808445
C           17.92207775730961        2.63198397454280       -1.11008139453902
C           19.24527144125920        3.24933948968134       -1.17868249950181
C           20.13942344758377        2.33210283772013       -0.76142380009697
N           18.04578589448494        1.35537475610994       -0.65635364339435
C           19.33310340562564        1.14680198849435       -0.45069032730952
C           19.82518426465739       -0.08255377118315       -0.00162402097610