332
 energy: -574.061111895879 gnorm: 7.989565948256 xtb: 6.5.1 (b24c23e)
C           42.86879600000000       -0.00168700000000        0.00002400000000
C           43.60323000000000       -1.37884500000000       -0.07186200000000
C           43.01608400000000       -2.62251000000000       -0.13677900000000
C           44.06800200000000       -3.57840700000000       -0.18668000000000
C           45.25645400000000       -2.88122200000000       -0.15029100000000
N           44.96476200000000       -1.54554300000000       -0.08056400000000
C           46.68781000000000       -3.49954400000000       -0.18257700000000
C           47.81037100000000       -2.75473700000000       -0.14369400000000
C           49.09535699999999       -3.40720300000000       -0.17776300000000
C           50.03264100000000       -2.46597500000000       -0.12862600000000
N           48.03220200000000       -1.41252000000000       -0.07361700000000
C           49.38158000000000       -1.16810700000000       -0.06086500000000
C           50.07834200000000       -0.00035500000000        0.00009500000000
C           49.30367700000000        1.39193200000000        0.07278300000000
C           49.86725600000000        2.65247100000000        0.13859600000000
C           48.80923199999999        3.59662900000000        0.18788500000000
C           47.63132000000000        2.88670000000000        0.15081300000000
N           47.93666900000000        1.54956400000000        0.08100400000000
C           46.19852299999999        3.51126200000000        0.18341000000000
C           45.08100199999999        2.76165400000000        0.14427600000000
C           43.77723300000000        3.38637500000000        0.17688100000000
C           42.86075000000000        2.42232100000000        0.12655600000000
C           43.55480500000000        1.15668500000000        0.06049300000000
N           44.89088700000000        1.41791100000000        0.07413200000000
H           41.78608000000000        0.00653000000000        0.00045000000000
H           41.95540800000000       -2.82017600000000       -0.14709500000000
H           43.96873700000000       -4.65147000000000       -0.24269600000000
H           45.64478699999999       -0.78950400000000       -0.04110100000000
H           46.76585200000000       -4.57897700000000       -0.23893500000000
H           49.26031800000000       -4.46811800000000       -0.23315500000000
H           51.09067999999999       -2.65337400000000       -0.13841400000000
H           50.92262999999999        2.87724700000000        0.15033600000000
H           48.89765800000000        4.67072500000000        0.24396200000000
H           47.25796600000000        0.79172200000000        0.04143800000000
H           46.11729100000000        4.59014100000000        0.23972800000000
H           43.59125900000000        4.44353100000000        0.23206300000000
H           41.79386900000000        2.55172200000000        0.13330600000000
C          163.37055999999998        0.00095600000000       -0.00014600000000
C          162.63612699999996        1.35749200000000       -0.24822100000000
C          163.22327199999998        2.58253400000000       -0.47224800000000
C          162.17135400000001        3.52411800000000       -0.64444400000000
C          160.98290200000000        2.83737100000000       -0.51885900000000
N          161.27459400000001        1.52169400000000       -0.27825000000000
C          159.55154599999997        3.44643300000000       -0.63025100000000
C          158.42898499999998        2.71278000000000       -0.49608000000000
C          157.14399900000001        3.35547500000000       -0.61362400000000
C          156.20671499999997        2.42834100000000       -0.44406900000000
N          158.20715400000000        1.39066400000000       -0.25428500000000
C          156.85777600000000        1.14991000000000       -0.21026300000000
C          156.16101399999999       -0.00035500000000        0.00009500000000
C          156.93567899999996       -1.37179300000000        0.25090700000000
C          156.37210099999999       -2.61345500000000        0.47799000000000
C          157.43012499999998       -3.54347400000000        0.64807000000000
C          158.60803600000000       -2.84417700000000        0.52017200000000
N          158.30268699999999       -1.52706500000000        0.27929500000000
C          160.04083299999996       -3.45938800000000        0.63267400000000
C          161.15835400000000       -2.72100500000000        0.49763800000000
C          162.46212299999999       -3.33637200000000        0.61016800000000
C          163.37860599999999       -2.38675500000000        0.43650500000000
C          162.68455100000000       -1.14007000000000        0.20852000000000
N          161.34846899999999       -1.39738400000000        0.25558000000000
H          164.45327700000001       -0.00713900000000        0.00133100000000
H          164.28394900000001        2.77724100000000       -0.50785400000000
H          162.27061900000001        4.58111200000000       -0.83774300000000
H          160.59456900000001        0.77697600000000       -0.14206200000000
H          159.47350399999999        4.50970100000000       -0.82470800000000
H          156.97903799999997        4.40050100000000       -0.80474500000000
H          155.14867599999999        2.61293300000000       -0.47783100000000
H          155.31672599999999       -2.83486400000000        0.51848600000000
H          157.34169800000001       -4.60148500000000        0.84156400000000
H          158.98138999999998       -0.78057300000000        0.14277400000000
H          160.12206499999996       -4.52211200000000        0.82702000000000
H          162.64809700000001       -4.37769800000000        0.80059900000000
H          164.44548700000001       -2.51421800000000        0.45981100000000
C           56.74989899999999       -0.00034900000000        0.00888700000000
C           55.54096000000000       -0.01380400000000        0.00044000000000
C           54.11943099999999       -0.00498500000000       -0.01154300000000
C           52.90776100000000        0.00245400000000       -0.00068000000000
C           58.16650300000000       -0.00702400000000        0.00942000000000
C           59.38719900000000        0.00245400000000       -0.00068000000000
C           72.40764000000000       -0.00034900000000        0.00888700000000
C           71.19870100000000       -0.01380400000000        0.00044000000000
C           69.77717199999998       -0.00498500000000       -0.01154300000000
C           68.56550200000000        0.00245400000000       -0.00068000000000
C           73.82424399999999       -0.00702400000000        0.00942000000000
C           75.04494000000000        0.00245400000000       -0.00068000000000
C           88.06538099999999       -0.00034900000000        0.00888700000000
C           86.85644200000000       -0.01380400000000        0.00044000000000
C           85.43491299999999       -0.00498500000000       -0.01154300000000
C           84.22324300000000        0.00245400000000       -0.00068000000000
C           89.48198499999998       -0.00702400000000        0.00942000000000
C           90.70268099999998        0.00245400000000       -0.00068000000000
C          103.72312200000000       -0.00034900000000        0.00888700000000
C          102.51418300000000       -0.01380400000000        0.00044000000000
C          101.09265400000000       -0.00498500000000       -0.01154300000000
C           99.88098399999998        0.00245400000000       -0.00068000000000
C          105.13972600000000       -0.00702400000000        0.00942000000000
C          106.36042200000000        0.00245400000000       -0.00068000000000
C          119.38086300000001       -0.00034900000000        0.00888700000000
C          118.17192399999999       -0.01380400000000        0.00044000000000
C          116.75039499999998       -0.00498500000000       -0.01154300000000
C          115.53872500000000        0.00245400000000       -0.00068000000000
C          120.79746799999998       -0.00702400000000        0.00942000000000
C          122.01816300000000        0.00245400000000       -0.00068000000000
C          135.03860399999999       -0.00034900000000        0.00888700000000
C          133.82966500000001       -0.01380400000000        0.00044000000000
C          132.40813600000001       -0.00498500000000       -0.01154300000000
C          131.19646599999999        0.00245400000000       -0.00068000000000
C          136.45520900000000       -0.00702400000000        0.00942000000000
C          137.67590400000000        0.00245400000000       -0.00068000000000
C          150.69634500000001       -0.00034900000000        0.00888700000000
C          149.48740599999996       -0.01380400000000        0.00044000000000
C          148.06587700000000       -0.00498500000000       -0.01154300000000
C          146.85420800000000        0.00245400000000       -0.00068000000000
C          152.11295000000001       -0.00702400000000        0.00942000000000
C          153.33364499999999        0.00245400000000       -0.00068000000000
C           60.32062900000000       -0.00035500000000        0.00010000000000
C           61.10066900000000        1.38718000000000       -0.01722600000000
C           60.54856500000000        2.65328100000000       -0.03304900000000
C           61.61718100000000        3.58590500000000       -0.04468100000000
C           62.78808899999999        2.86227700000000       -0.03562200000000
N           62.46939600000000        1.52924900000000       -0.01898000000000
C           64.22046100000000        3.47694400000000       -0.04326900000000
C           65.34608600000000        2.73889200000000       -0.03406100000000
C           66.62638400000000        3.40228900000000       -0.04231400000000
C           67.57083400000000        2.46731700000000       -0.03065300000000
N           65.57607600000000        1.39840000000000       -0.01735400000000
C           66.92780800000000        1.16484700000000       -0.01442900000000
C           67.63002100000000       -0.00035500000000        0.00010000000000
C           66.84998200000000       -1.38789100000000        0.01738100000000
C           67.40208699999999       -2.65399400000000        0.03311700000000
C           66.33346899999999       -3.58661700000000        0.04475400000000
C           65.16256199999999       -2.86298800000000        0.03578100000000
N           65.48125500000000       -1.52996000000000        0.01917800000000
C           63.73018999999999       -3.47765500000000        0.04347300000000
C           62.60456500000000       -2.73960200000000        0.03427200000000
C           61.32426699999999       -3.40299900000000        0.04256900000000
C           60.37981700000000       -2.46802700000000        0.03090600000000
C           61.02284300000000       -1.16555700000000        0.01463800000000
N           62.37457499999999       -1.39911100000000        0.01753800000000
H           59.49536200000000        2.88850300000000       -0.03600400000000
H           61.54055199999999        4.66240500000000       -0.05812800000000
H           63.13420900000000        0.75864100000000       -0.00935300000000
H           64.29734999999999        4.55828300000000       -0.05674200000000
H           66.78353000000000        4.46583400000000       -0.05556700000000
H           68.62772800000000        2.66152000000000       -0.03306200000000
H           68.45528899999999       -2.88921700000000        0.03601100000000
H           66.41009900000000       -4.66311800000000        0.05814600000000
H           64.81644100000000       -0.75935000000000        0.00959400000000
H           63.65330099999999       -4.55899300000000        0.05697600000000
H           61.16712100000000       -4.46654300000000        0.05585000000000
H           59.32292300000000       -2.66223000000000        0.03334300000000
C           75.97837000000000       -0.00035500000000        0.00010000000000
C           76.75841000000000        1.38718000000000       -0.01722600000000
C           76.20630600000000        2.65328100000000       -0.03304900000000
C           77.27492200000000        3.58590500000000       -0.04468100000000
C           78.44583000000000        2.86227700000000       -0.03562200000000
N           78.12713700000000        1.52924900000000       -0.01898000000000
C           79.87820200000000        3.47694400000000       -0.04326900000000
C           81.00382700000000        2.73889200000000       -0.03406100000000
C           82.28412500000000        3.40228900000000       -0.04231400000000
C           83.22857500000001        2.46731700000000       -0.03065300000000
N           81.23381700000000        1.39840000000000       -0.01735400000000
C           82.58554900000000        1.16484700000000       -0.01442900000000
C           83.28776200000000       -0.00035500000000        0.00010000000000
C           82.50772299999998       -1.38789100000000        0.01738100000000
C           83.05982800000000       -2.65399400000000        0.03311700000000
C           81.99121000000000       -3.58661700000000        0.04475400000000
C           80.82030300000000       -2.86298800000000        0.03578100000000
N           81.13899600000001       -1.52996000000000        0.01917800000000
C           79.38793099999999       -3.47765500000000        0.04347300000000
C           78.26230600000000       -2.73960200000000        0.03427200000000
C           76.98200799999999       -3.40299900000000        0.04256900000000
C           76.03755800000000       -2.46802700000000        0.03090600000000
C           76.68058400000000       -1.16555700000000        0.01463800000000
N           78.03231599999999       -1.39911100000000        0.01753800000000
H           75.15310300000000        2.88850300000000       -0.03600400000000
H           77.19829300000001        4.66240500000000       -0.05812800000000
H           78.79195000000000        0.75864100000000       -0.00935300000000
H           79.95509100000000        4.55828300000000       -0.05674200000000
H           82.44127100000000        4.46583400000000       -0.05556700000000
H           84.28546900000001        2.66152000000000       -0.03306200000000
H           84.11302999999999       -2.88921700000000        0.03601100000000
H           82.06784000000000       -4.66311800000000        0.05814600000000
H           80.47418199999998       -0.75935000000000        0.00959400000000
H           79.31104200000000       -4.55899300000000        0.05697600000000
H           76.82486200000000       -4.46654300000000        0.05585000000000
H           74.98066400000000       -2.66223000000000        0.03334300000000
C           91.63611199999998       -0.00035500000000        0.00010000000000
C           92.41615100000000        1.38718000000000       -0.01722600000000
C           91.86404699999999        2.65328100000000       -0.03304900000000
C           92.93266299999999        3.58590500000000       -0.04468100000000
C           94.10357100000000        2.86227700000000       -0.03562200000000
N           93.78487800000001        1.52924900000000       -0.01898000000000
C           95.53594300000000        3.47694400000000       -0.04326900000000
C           96.66156799999999        2.73889200000000       -0.03406100000000
C           97.94186600000000        3.40228900000000       -0.04231400000000
C           98.88631599999998        2.46731700000000       -0.03065300000000
N           96.89155800000000        1.39840000000000       -0.01735400000000
C           98.24328999999999        1.16484700000000       -0.01442900000000
C           98.94550300000000       -0.00035500000000        0.00010000000000
C           98.16546400000000       -1.38789100000000        0.01738100000000
C           98.71756900000000       -2.65399400000000        0.03311700000000
C           97.64895100000000       -3.58661700000000        0.04475400000000
C           96.47804399999998       -2.86298800000000        0.03578100000000
N           96.79673699999998       -1.52996000000000        0.01917800000000
C           95.04567199999998       -3.47765500000000        0.04347300000000
C           93.92004700000000       -2.73960200000000        0.03427200000000
C           92.63974899999998       -3.40299900000000        0.04256900000000
C           91.69529900000001       -2.46802700000000        0.03090600000000
C           92.33832500000000       -1.16555700000000        0.01463800000000
N           93.69005699999998       -1.39911100000000        0.01753800000000
H           90.81084400000000        2.88850300000000       -0.03600400000000
H           92.85603399999998        4.66240500000000       -0.05812800000000
H           94.44969100000000        0.75864100000000       -0.00935300000000
H           95.61283200000000        4.55828300000000       -0.05674200000000
H           98.09901199999999        4.46583400000000       -0.05556700000000
H           99.94320999999998        2.66152000000000       -0.03306200000000
H           99.77077099999998       -2.88921700000000        0.03601100000000
H           97.72558100000001       -4.66311800000000        0.05814600000000
H           96.13192300000000       -0.75935000000000        0.00959400000000
H           94.96878300000000       -4.55899300000000        0.05697600000000
H           92.48260300000000       -4.46654300000000        0.05585000000000
H           90.63840500000001       -2.66223000000000        0.03334300000000
C          107.29385300000000       -0.00035500000000        0.00010000000000
C          108.07389300000000        1.38718000000000       -0.01722600000000
C          107.52178800000000        2.65328100000000       -0.03304900000000
C          108.59040500000000        3.58590500000000       -0.04468100000000
C          109.76131199999999        2.86227700000000       -0.03562200000000
N          109.44261899999998        1.52924900000000       -0.01898000000000
C          111.19368399999999        3.47694400000000       -0.04326900000000
C          112.31930900000000        2.73889200000000       -0.03406100000000
C          113.59960699999999        3.40228900000000       -0.04231400000000
C          114.54405700000000        2.46731700000000       -0.03065300000000
N          112.54929899999999        1.39840000000000       -0.01735400000000
C          113.90103100000000        1.16484700000000       -0.01442900000000
C          114.60324500000000       -0.00035500000000        0.00010000000000
C          113.82320500000000       -1.38789100000000        0.01738100000000
C          114.37530999999998       -2.65399400000000        0.03311700000000
C          113.30669299999998       -3.58661700000000        0.04475400000000
C          112.13578500000000       -2.86298800000000        0.03578100000000
N          112.45447799999999       -1.52996000000000        0.01917800000000
C          110.70341300000000       -3.47765500000000        0.04347300000000
C          109.57778799999998       -2.73960200000000        0.03427200000000
C          108.29749000000000       -3.40299900000000        0.04256900000000
C          107.35303999999998       -2.46802700000000        0.03090600000000
C          107.99606599999998       -1.16555700000000        0.01463800000000
N          109.34779800000000       -1.39911100000000        0.01753800000000
H          106.46858499999999        2.88850300000000       -0.03600400000000
H          108.51377500000000        4.66240500000000       -0.05812800000000
H          110.10743300000000        0.75864100000000       -0.00935300000000
H          111.27057300000000        4.55828300000000       -0.05674200000000
H          113.75675300000000        4.46583400000000       -0.05556700000000
H          115.60095099999999        2.66152000000000       -0.03306200000000
H          115.42851200000000       -2.88921700000000        0.03601100000000
H          113.38332199999999       -4.66311800000000        0.05814600000000
H          111.78966399999999       -0.75935000000000        0.00959400000000
H          110.62652499999999       -4.55899300000000        0.05697600000000
H          108.14034500000000       -4.46654300000000        0.05585000000000
H          106.29614599999998       -2.66223000000000        0.03334300000000
C          122.95159400000000       -0.00035500000000        0.00010000000000
C          123.73163399999999        1.38718000000000       -0.01722600000000
C          123.17952900000000        2.65328100000000       -0.03304900000000
C          124.24814600000001        3.58590500000000       -0.04468100000000
C          125.41905300000001        2.86227700000000       -0.03562200000000
N          125.10035999999999        1.52924900000000       -0.01898000000000
C          126.85142500000001        3.47694400000000       -0.04326900000000
C          127.97705000000001        2.73889200000000       -0.03406100000000
C          129.25734800000001        3.40228900000000       -0.04231400000000
C          130.20179899999999        2.46731700000000       -0.03065300000000
N          128.20704000000001        1.39840000000000       -0.01735400000000
C          129.55877200000000        1.16484700000000       -0.01442900000000
C          130.26098600000000       -0.00035500000000        0.00010000000000
C          129.48094599999999       -1.38789100000000        0.01738100000000
C          130.03305100000000       -2.65399400000000        0.03311700000000
C          128.96443400000001       -3.58661700000000        0.04475400000000
C          127.79352599999999       -2.86298800000000        0.03578100000000
N          128.11221900000001       -1.52996000000000        0.01917800000000
C          126.36115400000000       -3.47765500000000        0.04347300000000
C          125.23552900000000       -2.73960200000000        0.03427200000000
C          123.95523199999998       -3.40299900000000        0.04256900000000
C          123.01078099999999       -2.46802700000000        0.03090600000000
C          123.65380700000000       -1.16555700000000        0.01463800000000
N          125.00553900000000       -1.39911100000000        0.01753800000000
H          122.12632600000001        2.88850300000000       -0.03600400000000
H          124.17151600000000        4.66240500000000       -0.05812800000000
H          125.76517399999999        0.75864100000000       -0.00935300000000
H          126.92831399999999        4.55828300000000       -0.05674200000000
H          129.41449399999999        4.46583400000000       -0.05556700000000
H          131.25869200000000        2.66152000000000       -0.03306200000000
H          131.08625300000000       -2.88921700000000        0.03601100000000
H          129.04106300000001       -4.66311800000000        0.05814600000000
H          127.44740500000000       -0.75935000000000        0.00959400000000
H          126.28426600000000       -4.55899300000000        0.05697600000000
H          123.79808600000000       -4.46654300000000        0.05585000000000
H          121.95388699999999       -2.66223000000000        0.03334300000000
C          138.60933499999999       -0.00035500000000        0.00010000000000
C          139.38937500000000        1.38718000000000       -0.01722600000000
C          138.83726999999999        2.65328100000000       -0.03304900000000
C          139.90588700000001        3.58590500000000       -0.04468100000000
C          141.07679400000001        2.86227700000000       -0.03562200000000
N          140.75810100000001        1.52924900000000       -0.01898000000000
C          142.50916699999999        3.47694400000000       -0.04326900000000
C          143.63479100000001        2.73889200000000       -0.03406100000000
C          144.91508899999999        3.40228900000000       -0.04231400000000
C          145.85954000000001        2.46731700000000       -0.03065300000000
N          143.86478099999999        1.39840000000000       -0.01735400000000
C          145.21651299999999        1.16484700000000       -0.01442900000000
C          145.91872699999999       -0.00035500000000        0.00010000000000
C          145.13868700000000       -1.38789100000000        0.01738100000000
C          145.69079199999996       -2.65399400000000        0.03311700000000
C          144.62217500000000       -3.58661700000000        0.04475400000000
C          143.45126700000000       -2.86298800000000        0.03578100000000
N          143.76996000000000       -1.52996000000000        0.01917800000000
C          142.01889499999999       -3.47765500000000        0.04347300000000
C          140.89327000000000       -2.73960200000000        0.03427200000000
C          139.61297300000001       -3.40299900000000        0.04256900000000
C          138.66852200000000       -2.46802700000000        0.03090600000000
C          139.31154799999999       -1.16555700000000        0.01463800000000
N          140.66328100000001       -1.39911100000000        0.01753800000000
H          137.78406699999999        2.88850300000000       -0.03600400000000
H          139.82925700000001        4.66240500000000       -0.05812800000000
H          141.42291499999999        0.75864100000000       -0.00935300000000
H          142.58605499999999        4.55828300000000       -0.05674200000000
H          145.07223500000001        4.46583400000000       -0.05556700000000
H          146.91643299999998        2.66152000000000       -0.03306200000000
H          146.74399399999999       -2.88921700000000        0.03601100000000
H          144.69880400000000       -4.66311800000000        0.05814600000000
H          143.10514599999996       -0.75935000000000        0.00959400000000
H          141.94200699999996       -4.55899300000000        0.05697600000000
H          139.45582700000000       -4.46654300000000        0.05585000000000
H          137.61162800000000       -2.66223000000000        0.03334300000000
332
 energy: -577.939643867199 gnorm: 2.684696341591 xtb: 6.5.1 (b24c23e)
C           42.87190864084786       -0.00790233382485       -0.00030044066496
C           43.60142874733387       -1.37385013926188       -0.07160123543499
C           43.01682832960064       -2.62444689083517       -0.13688012354202
C           44.06602088378702       -3.57790679682786       -0.18665386376364
C           45.26151070884620       -2.88267337900184       -0.15036677983200
N           44.96475486630180       -1.54538528535164       -0.08055580920681
C           46.68123819079603       -3.49694027123561       -0.18244118884855
C           47.81204455665864       -2.75379031860995       -0.14364432459075
C           49.09582654917440       -3.40828016232308       -0.17781902820286
C           50.03401949426023       -2.46602084767627       -0.12862899028201
N           48.03085975772787       -1.41150025544909       -0.07356267250401
C           49.38247744838020       -1.16842958526707       -0.06088294538837
C           50.07415274271720        0.00507826810362        0.00036958541134
C           49.30631584381267        1.38695388678110        0.07252179673421
C           49.86673767102166        2.65402417168512        0.13867694175640
C           48.81122946413942        3.59609910094287        0.18785735462106
C           47.62628269607321        2.88798269828731        0.15088021203379
N           47.93667354849277        1.54943257766617        0.08099784220301
C           46.20494701988245        3.50864037564872        0.18327321546300
C           45.07943528068103        2.76075262114781        0.14422895602547
C           43.77663136547322        3.38754675667936        0.17694219145272
C           42.85958189665494        2.42286868550828        0.12658458549319
C           43.55564895688683        1.15824796564240        0.06057463889873
N           44.89206022558044        1.41664755701410        0.07406594356018
H           41.78653592745817        0.00602525454166        0.00042364344533
H           41.95553728252118       -2.82030453911679       -0.14710171129846
H           43.96860129368326       -4.65136130324652       -0.24269032181989
H           45.64461510400812       -0.78967161295037       -0.04110974862792
H           46.76534389542964       -4.57853346451362       -0.23891193286088
H           49.26018844096633       -4.46851478943131       -0.23317567167115
H           51.09120046053111       -2.65294117344660       -0.13839144589893
H           50.92255114996463        2.87723467157694        0.15033533231446
H           48.89779460537606        4.67059946597126        0.24395545823780
H           47.25816385645152        0.79191290800644        0.04144797703584
H           46.11786079166515        4.58971464365709        0.23970558951282
H           43.59137872558440        4.44396714396257        0.23208576638912
H           41.79344239864243        2.55158199563762        0.13329869374772
C          163.36744744294614        0.00707810252054       -0.00126557475625
C          162.63792812902446        1.35257214219484       -0.24732126404237
C          163.22252774565374        2.58444184789826       -0.47259691228666
C          162.17333499463857        3.52362520661202       -0.64435390449005
C          160.97784548331805        2.83880073465458       -0.51912048198681
N          161.27460120340680        1.52153859794399       -0.27822160214666
C          159.55811775622649        3.44386832234196       -0.62978178650118
C          158.42731153654881        2.71184802258984       -0.49590953591705
C          157.14352958841624        3.35653586309821       -0.61381810617237
C          156.20533680786608        2.42838614982861       -0.44407700261526
N          158.20849667429547        1.38966012079827       -0.25410174092676
C          156.85688017207576        1.15022735158407       -0.21032161711578
C          156.16521455976050       -0.00570148029961        0.00107956954249