682
 energy: -1172.742682224475 gnorm: 0.000619262040 xtb: 6.5.1 (b24c23e)
C          120.71473615758235        0.12069473946450       -0.00962004482524
C          121.34107549768235        0.21641786735989        1.22617115088593
C          120.71550834787658        0.29556863664771        2.50291981054024
C          121.69790696682807        0.38030950708780        3.44875904688930
C          122.95532055645133        0.35035914971221        2.78089578946571
N          122.68938912344244        0.25722141048429        1.44375104293228
C          124.22491726398576        0.40945118032231        3.36077011963268
C          125.43504668932134        0.33956264641007        2.66928469988839
C          126.73221940451226        0.34336328861153        3.32148379685691
C          127.65389393392613        0.27286877168375        2.33826287488455
N          125.58924984234750        0.27302549179069        1.31890816755328
C          126.91803183228704        0.22855656759739        1.08916081077541
C          127.54748831994684        0.15160755356171       -0.16835885289027
C          126.89573773356834        0.09498606256904       -1.41305160453258
C          127.51567049649501        0.05068506728960       -2.69082877708494
C          126.52931231930040        0.02471617817927       -3.63712961505284
C          125.27578751475603        0.04522479794709       -2.96493513226243
C          124.00691776465524        0.03710291394627       -3.54997152177884
C          123.95945509133750       -0.06262058565129       -5.04035981983448
C          123.70082788666855        0.99984978998209       -5.91062439387995
O          123.49126275754288        2.29664906676931       -5.56731740920282
C          123.61836812854942        2.80701031461577       -4.25416151768172
C          123.64735435502185        0.77159000169859       -7.29303926670792
C          123.85332611747177       -0.49198929414146       -7.80521630297087
C          124.12500028921721       -1.56182240221403       -6.96027835409079
C          124.17769062829451       -1.34305675886485       -5.58916339711256
O          124.43026394726567       -2.32501142828653       -4.68133764727509
C          124.64760116090817       -3.65459071556478       -5.10833017507728
C          122.79624068112300        0.02910995083355       -2.85257205809640
C          121.49296087884080       -0.05977705584503       -3.49237834753815
C          120.57892705297867       -0.04020990280570       -2.50105277770714
C          121.32281287453661        0.06392113694626       -1.25767244703867
N          122.65444098555272        0.10393024931592       -1.50721583504742
N          125.54865418913838        0.09202174016684       -1.62355846441807
C          124.26958509807471        0.45161446820066        4.85536547963030
C          124.34816800552295        1.61161245581681        5.62986473701958
O          124.38312552440156        2.88974324512146        5.17224867320901
C          124.54219722290314        3.24326795931989        3.81176640798501
C          124.37216419552715        1.51498428426693        7.02843403596399
C          124.32249073033674        0.28433376928538        7.64883715293678
C          124.24584861216537       -0.88353308236309        6.89885940602488
C          124.21706329364011       -0.79442239344501        5.51243477086195
O          124.13422859644825       -1.87609341062176        4.69088675714433
C          124.11842410561279       -3.18276248987736        5.22898648879352
H          119.63016443630973        0.08956397432435        0.01071400353713
H          119.64884591160146        0.28903019459385        2.66185700346199
H          121.57524844942351        0.45427318669105        4.51737660992314
H          123.39655941282818        0.19941358719930        0.71894592700948
H          126.88695370038299        0.38543291095642        4.38777672054548
H          128.72868936636874        0.24853554764338        2.42254535536582
H          128.58155764100690        0.04351187503992       -2.85293707090155
H          126.64927826150063       -0.00867434487852       -4.70787293601017
H          124.58325731202420        2.54304337404323       -3.80861950139358
H          123.55342685892305        3.89384173255980       -4.34810325207328
H          122.80863581046344        2.45537397755532       -3.60584563458075
H          123.44259902938613        1.61384412191790       -7.94172754169889
H          123.80812727227149       -0.65481441708827       -8.87608447951520
H          124.28871958503792       -2.54703024808646       -7.37532610045217
H          124.81939065707763       -4.23973360944646       -4.20297811351235
H          123.77335078358260       -4.05517049100136       -5.63547942810654
H          125.52829449486595       -3.72943674225146       -5.75762005769114
H          121.33184874595540       -0.13579686785579       -4.55591567512657
H          119.50359367594558       -0.09144376658340       -2.57201321680252
H          124.84416774749907        0.10375932296403       -0.89364871403966
H          125.47550468160009        2.84445220768352        3.39977222392748
H          124.57871238160961        4.33511455484195        3.78954129895392
H          123.69889168401608        2.90187016505900        3.20182487355414
H          124.43081478502494        2.43104579119757        7.60251143349895
H          124.34380451936157        0.22391168740049        8.73108708612149
H          124.20716081456753       -1.84227242144325        7.39798493125989
H          123.24042555015438       -3.34509144503412        5.86606511377509
H          124.07195611741112       -3.86197761771754        4.37566812914811
H          125.02797116935194       -3.39045603308766        5.80546074780033
C          235.35404047799443        0.02120123769387       -0.17078989655108
C          234.75408822753101       -0.20484615308865       -1.40271024312374
C          235.40654665146479       -0.43671865956936       -2.64703710834744
C          234.44423118356968       -0.61105214568082       -3.60118999269027
C          233.17291132841265       -0.49780651194174       -2.96956820842753
N          233.41050974832018       -0.24599664418194       -1.64756339438311
C          231.91565768095680       -0.62174844924613       -3.56582108692878
C          230.69223816368958       -0.54775650248085       -2.89885471770343
C          229.41058476598420       -0.75034842164610       -3.54986078737988
C          228.46816891269978       -0.57696170131833       -2.59949841808019
N          230.50862623067016       -0.25582626601706       -1.58232906880448
C          229.17598848012776       -0.26351557233045       -1.37299278750308
C          228.51864396378818        0.02032699877040       -0.15979658829860
C          229.14367833702198        0.32967291170109        1.06171194469091
C          228.49682723368048        0.63681571096928        2.28874223196719
C          229.46305564254573        0.86031627233816        3.23009937276642
C          230.73019865111885        0.69148226910362        2.60644464246672
C          231.98634752477395        0.82465443291661        3.20386293951465
C          231.99955766492786        1.10069119789570        4.67281220569714
C          232.22987861688230        2.34828168029982        5.25861334161878
O          232.44169136175157        3.52190930780059        4.61008322469268
C          232.37093457297729        3.68361602940822        3.20653814901283
C          232.24723648894550        2.46986321358066        6.65548130557022
C          232.03409643343196        1.37015980872734        7.45953585775999
C          231.79147997490983        0.12113695342173        6.89966086990772
C          231.77427973053761       -0.00665870034253        5.51624208500501
O          231.55071681287006       -1.18554729231544        4.87380705397749
C          231.33458104473377       -2.37170147103946        5.61092060850940
C          233.21128946027059        0.63460880469120        2.55975874464665
C          234.50014231393175        0.71346620464868        3.22933438064130
C          235.43557210939872        0.48790677376127        2.28448251389260
C          234.71898909699891        0.27272502145304        1.03929148924066
N          233.38235907016599        0.36751541037780        1.24243580588693
N          230.48587556828917        0.37998718967154        1.29527625740775
C          231.90504496735812       -0.94930771662870       -5.02522066613622
C          231.87339254239686       -0.01034292980300       -6.05931157398809
O          231.85009935443205        1.34077221324709       -5.92172973831787
C          231.56466915319112        2.00828764713019       -4.70718563336979
C          231.89495117144267       -0.44168110425436       -7.39290558388081
C          231.94085630242986       -1.78657370565198       -7.69524901610006
C          231.96614871100704       -2.73898824443376       -6.68312578168570
C          231.95145447565227       -2.31765224086378       -5.35889078988738
O          231.98648924548894       -3.16913236138181       -4.29788775653645
C          231.99781787388650       -4.56712371311063       -4.50441780940756
H          236.43898717471043       -0.00025963490051       -0.16163103714176
H          236.47643934544428       -0.46230107320836       -2.78017578568953
H          234.58951469513818       -0.80588542243076       -4.65160880783407
H          232.68832504928034       -0.13244416074866       -0.94448238599687
H          229.27956873317547       -0.99892568616692       -4.59088674458823
H          227.39614146785837       -0.64777952967214       -2.69253731457050
H          227.42777494802951        0.67866228990927        2.42232444555755
H          229.32054900499404        1.11676414037735        4.26741797272516
H          231.42208003807266        3.31417374734165        2.80369474935947
H          232.44143226185315        4.75899814224337        3.02568705241652
H          233.20247999334975        3.18073664780706        2.70141055864380
H          232.43030127222832        3.44875918272074        7.08020747968554
H          232.05120515830862        1.47809080914765        8.53814477479130
H          231.62201775158766       -0.73259759776084        7.54165244553367
H          231.19220006712968       -3.16488284459900        4.87456167192750
H          232.19824884705122       -2.61620016563751        6.24104118978204
H          230.43770541454947       -2.29781273824666        6.23785596564130
H          234.63785631416209        0.90814176017418        4.28101606693217
H          236.50906006153576        0.46102961724893        2.38891343368619
H          231.20545172834588        0.18868652521107        0.60618532626013
H          230.60498403000264        1.68651311334806       -4.28858430106095
H          231.50906315845441        3.07079029236299       -4.95607905700303
H          232.35558403931492        1.85695081816004       -3.96464134559762
H          231.87409894215909        0.30878851409469       -8.17297800192962
H          231.95535884060368       -2.10701142616647       -8.73083905105025
H          232.00094958939641       -3.79038052527018       -6.93441650539321
H          232.89357811319536       -4.88573037054734       -5.05139511946564
H          232.00431420841230       -5.02079459175909       -3.51156039295272
H          231.10452090072855       -4.89999463603479       -5.04656481866624
C          130.17722476663474        0.12698294867934       -0.22299443741617
C          128.95634832571929        0.13626181358084       -0.19675770290252
C          131.52908894800734        0.12109943569433       -0.24713810735000
C          132.75020828930968        0.11371227638856       -0.26965978322870
C          143.66274470038621        0.02338198041988       -0.30384724387607
C          142.44002696358373        0.04073757716862       -0.30834861145040
C          145.01101170303201        0.01303144343901       -0.30134324411548
C          146.23385211866452        0.00085831440365       -0.30125148398200
C          157.14354633678079       -0.03478422638006       -0.25786611482344
C          155.92060577973834       -0.02693010413980       -0.26536769422548
C          158.49160136623638       -0.03627424800641       -0.25605911077871
C          159.71459298712224       -0.03878328081334       -0.25905099814533
C          170.62289485907166       -0.03541422552596       -0.24711485635162
C          169.39991371935852       -0.03108615938822       -0.24833951264486
C          171.97090275739907       -0.03292393909704       -0.24673763967621
C          173.19388638926273       -0.03526593332304       -0.25046363828351
C          184.10092867540425       -0.03220385738336       -0.24593893520683
C          182.87795565770213       -0.02743607147809       -0.24813996269499
C          185.44892506303967       -0.03079895052806       -0.24381592337570
C          186.67190536753776       -0.03360012008569       -0.24869884905897
C          197.57855057257274       -0.04320560916454       -0.25081928412935
C          196.35560548818125       -0.03516908138520       -0.25167139954357
C          198.92654682958789       -0.04423023088403       -0.25055804437853
C          200.14950185979313       -0.04892038027106       -0.25395661782298
C          211.05701722536611       -0.04984226898084       -0.22748769746119
C          209.83414990234979       -0.04722289141906       -0.23369051923704
C          212.40519993652006       -0.04470033712775       -0.22208382495486
C          213.62806342153613       -0.04155375146366       -0.22031007446895
C          224.53773228181032       -0.00271721708756       -0.16080169590591
C          223.31613433441714       -0.00043999500609       -0.16729230993875
C          225.88904568058632        0.00151152639282       -0.15615605795758
C          227.11049389867463        0.00636795196791       -0.15771056733218
C          134.15838900869687        0.11083449907190       -0.29611923891891
C          134.79554239183659        1.28627293008530        0.14068058538753
C          134.15982201692177        2.46718618872550        0.60758068635612
C          135.13503893171145        3.37148360659788        0.92552560781995
C          136.39550864341734        2.77047150449191        0.65854061173307
N          136.13919900254447        1.50985994943416        0.19017100514445
C          137.65853875363814        3.33913242090861        0.85083301397248
C          138.87971013624013        2.70806121077912        0.61744330413608
C          140.16803156264297        3.35059511390090        0.80434029721820
C          141.10388750372721        2.43327229132932        0.48495192199231
N          139.05420848784399        1.43039170918454        0.17872978274913
C          140.38515882059468        1.23530665636263        0.09573817621710
C          141.03600140010187        0.05290246707450       -0.31150206149438
C          140.39872070568313       -1.12900225655208       -0.73684331714965
C          141.03273828147911       -2.31956984182767       -1.17775076015188
C          140.05545058996015       -3.21242262248242       -1.52444337034009
C          138.79658072877800       -2.59288059478662       -1.29925801030421
C          137.53363425136916       -3.14418609089160       -1.53922967502545
C          137.50805838850889       -4.56034341775935       -2.01552542429696
C          137.75117467378598       -5.55406863275461       -1.04538833566898
O          138.01736767054049       -5.08864996340995        0.20563805279990
C          138.25298913910464       -5.98935048163002        1.26874344470133
C          137.70501300623749       -6.90522250321700       -1.36658989349151
C          137.41328962232927       -7.28016119146349       -2.67296688146254
C          137.18567758934557       -6.32619831713297       -3.64256249377215
C          137.23514420788581       -4.96137524221085       -3.32641946033629
O          136.99867956686418       -4.14636884212280       -4.38627395656513
C          137.23290332108920       -2.75067313983781       -4.38278026032989
C          136.31179158360706       -2.51605755395148       -1.29916315699623
C          135.02427605552447       -3.15471832187780       -1.50558408879929
C          134.08779700977382       -2.24594371867165       -1.16226158490686
C          134.80494584099088       -1.05605413790305       -0.74715190889058
N          136.13689912348732       -1.24520229246543       -0.84278283436691
N          139.05467473596488       -1.33420015370822       -0.82566024842701
C          137.68130100940232        4.74355200716232        1.35052448312392
C          137.24487298511147        5.79382366676345        0.53198145676923
O          136.81552335002905        5.44099115023699       -0.70913366742371
C          136.36664699258679        6.42649140936521       -1.61767975106400
C          137.27550241097069        7.10860534592811        0.99537633688534
C          137.73553268618079        7.36713001647982        2.27770321074295
C          138.16551991921298        6.34357030298905        3.10834952128827
C          138.13992729393075        5.02895719349598        2.64383227540886
O          138.52801251796618        3.95902764695141        3.38541121581243
C          139.04224180141176        4.13901000510095        4.68963900800950
H          133.09245602709609        2.59658940287302        0.68783650540313
H          134.99863030534368        4.36813141222147        1.31235678410185
H          136.85150903531527        0.83815972054215       -0.07519032532017
H          140.31217729969285        4.36693884679661        1.13349633758692
H          142.17770830540451        2.53243032586100        0.49724133376924
H          142.10017346319341       -2.46386078589690       -1.22380194995075
H          140.18739530763693       -4.21327413828401       -1.90228135015132
H          138.42938653087998       -5.37489469477839        2.15362038865440
H          139.13674643464196       -6.61112792231860        1.08074003650330
H          137.38562223174509       -6.63644540648696        1.44682729924215
H          137.88747544496263       -7.66360925471289       -0.61735192637457
H          137.37133475494653       -8.33254378217783       -2.93003673564525
H          136.96678242116477       -6.60608135125797       -4.66524809120984
H          137.18756887245371       -2.43578615642758       -5.42828957879993
H          136.46446952477629       -2.21545197209556       -3.81491347530781
H          138.22092593334318       -2.50831305905835       -3.97766196938762
H          134.88399305125594       -4.16424282353377       -1.85699658252691
H          133.01420911773937       -2.34670840525448       -1.17468825625829
H          138.34447770954694       -0.65796331640570       -0.56588174872284
H          137.16015790801180        7.14540758002377       -1.85467359251941
H          135.49416855021551        6.96469310776446       -1.22784430729175
H          136.08197455955002        5.89397775665005       -2.52704578558114
H          136.94599294638266        7.92687822744834        0.36928558406386
H          137.75790776082326        8.38959945540386        2.63836731358542
H          138.51468500850848        6.57385424961250        4.10594957021799
H          139.94269466474918        4.76498496110596        4.68289402511303
H          139.30060802302029        3.14301786052878        5.05389695067204
H          138.29570387427825        4.58455747476363        5.35824509910559
C          147.63767117466745       -0.00045156337280       -0.30771931776940
C          148.26804624760143        1.20896419642505        0.04417804491983
C          147.62339410025697        2.41710460462698        0.41722291846194
C          148.59250617508260        3.34438841301883        0.68630898255757
C          149.85722370721825        2.72989895049366        0.48035768184094
N          149.60991792048728        1.43899387609684        0.09645712523780
C          151.11690666148814        3.31321204694925        0.65298560779701
C          152.34223627795336        2.67238038959048        0.47675436214550
C          153.62648615274119        3.32999928430085        0.63627562054334
C          154.56845697758862        2.39853053466035        0.38238072401807
N          152.52542185273046        1.37009699267332        0.12047780338823
C          153.85758075907106        1.17609564147920        0.06106248471136
C          154.51695234687554       -0.02507038303296       -0.27142708676463
C          153.88837275626619       -1.23493080828790       -0.62640845200385
C          154.53122784584727       -2.44581752831673       -0.99208600710071
C          153.56042373956035       -3.36551976293280       -1.28343362013129
C          152.29736863424023       -2.74215232487607       -1.09805835512517
C          151.03800729128307       -3.31684719869824       -1.30162025679535
C          151.02321936130912       -4.76024243589484       -1.68847619866061
C          151.26755363395381       -5.68963832323334       -0.65688345654258
O          151.52334891966845       -5.14480539632289        0.56399410858643
C          151.75872778810455       -5.97572416320346        1.68249757884088
C          151.23287401493374       -7.05851183237339       -0.89309844886406
C          150.95185161906628       -7.51645379703499       -2.17517662337919
C          150.72314155139398       -6.62663549424285       -3.20361309363795
C          150.76074992015643       -5.24426255512666       -2.97327217911113
O          150.52581376795246       -4.49989126070085       -4.08389577472106
C          150.73352453479015       -3.10231328465891       -4.16383266820482
C          149.81202488167665       -2.68402448515424       -1.10211616772614
C          148.52943447233855       -3.34384785215546       -1.26426823168881
C          147.58637672289740       -2.41856885619355       -0.98839752506551
C          148.29517068405789       -1.19762665313912       -0.65920645345768
N          149.62731990983065       -1.38423984276118       -0.73603885396028
N          152.54598991245192       -1.45456253143519       -0.70354778184715
C          151.13004553126544        4.74700938916152        1.06094519918554
C          150.69906230461316        5.74085803811555        0.17199778722967
O          150.28428208515706        5.30744453996998       -1.04822076016805
C          149.83629651735822        6.22993583468239       -2.02107206679744
C          150.72070838618541        7.08286098908872        0.55009175662349
C          151.16646413266855        7.42519143195767        1.81773353480528
C          151.59086553874087        6.45881914437413        2.71695270176557
C          151.57414607546733        5.11695056737906        2.33781409477256
O          151.95724731198456        4.09849397166025        3.15114041238314
C          152.46256274595402        4.36438803101354        4.44404815993119
H          146.55477045980743        2.54890938982884        0.47300323404410
H          148.44818304455757        4.36496527492450        1.00110820093330
H          150.32731461081855        0.75247169796176       -0.11108729105884
H          153.76424921699157        4.36524640271501        0.90340385923506
H          155.64175894274999        2.50266039547745        0.39847729238315
H          155.59968197566894       -2.58528589627025       -1.02810380382353
H          153.69987420903098       -4.38697857546479       -1.59817269561341
H          151.92579754301443       -5.30610214747950        2.52829812578769
H          152.64770703232418       -6.60183530965701        1.53853954705506
H          150.89466450167490       -6.61656384409942        1.89589458104735
H          151.41625513973028       -7.76726160170106       -0.09695561655675
H          150.91901125028937       -8.58311027846368       -2.36627216129502
H          150.51237441785568       -6.97141913730130       -4.20802337957400
H          150.68817416917281       -2.85246771591466       -5.22674785974747
H          149.95178943010669       -2.54863553994445       -3.63302399983666
H          151.71450827216387       -2.81675426057748       -3.76981374893297
H          148.39629229412463       -4.37681038819835       -1.54281915526631
H          146.51344997413707       -2.52685952451372       -0.99579078442740
H          151.83062784163903       -0.76830432128116       -0.48794585747663
H          150.62746260916421        6.93679525295760       -2.29868096315739
H          148.95827975955632        6.78692141646179       -1.67220543630246
H          149.56070851791245        5.63842454948177       -2.89611164674476
H          150.39539373557668        7.85785936524886       -0.13086318167957
H          151.18193529307894        8.46884809231585        2.11199444659253
H          151.92878192378555        6.75410908256026        3.70122727904900
H          153.36115650979048        4.99167719372067        4.40227245108201
H          152.72158495431768        3.39499168451724        4.87374054262063
H          151.71051659162450        4.84980226347569        5.07785323890786
C          161.11814218455825       -0.03324586867922       -0.27043795748234
C          161.74482864489829        1.18176253802737        0.06888676050665
C          161.09650695149617        2.39035766804100        0.43378312096617
C          162.06276589788854        3.32348517106993        0.69307731974197
C          163.32927385047336        2.71212560542047        0.48915924401564
N          163.08592917827272        1.41732522546654        0.11596744951984
C          164.58735033710605        3.30094580417752        0.65546546628993
C          165.81443417586854        2.66278659714598        0.48190270550562
C          167.09693466218701        3.32517142566990        0.63572517663551
C          168.04136941154292        2.39492871218624        0.38651167300365
N          166.00112384553864        1.35888803572609        0.13323106081714
C          167.33374857212482        1.16854232206479        0.07316802243237
C          167.99631507348343       -0.03222704406558       -0.25443208355108
C          167.37126232673467       -1.24575649167308       -0.60311067867374
C          168.01791365725595       -2.45545186578754       -0.96606971364868
C          167.04997760348471       -3.38003537526941       -1.25143013606493
C          165.78503900697567       -2.76112362979676       -1.06432902377469
C          164.52727695704002       -3.34177563176727       -1.26057250088730
C          164.51651875153183       -4.78627126760176       -1.64310442360214
C          164.77221204643462       -5.71200346359552       -0.61099385652271
O          165.03428674870042       -5.16310407037767        0.60675114684652
C          165.28166282046467       -5.99032765767253        1.72540061730787
C          164.74166119664238       -7.08159864816521       -0.84362065522591
C          164.45332543901043       -7.54394930408817       -2.12249736583218
C          164.21352252189314       -6.65769653571116       -3.15149376494375
C          164.24699540245084       -5.27462902337197       -2.92483919098889
O          164.00105659599842       -4.53393587548537       -4.03553184285079
C          164.20568405036462       -3.13624651778918       -4.12147819351521
C          163.29972029929363       -2.71314998983316       -1.05773192883462
C          162.01913097053477       -3.37913228489867       -1.20956827327373
C          161.07370591806321       -2.45630901636809       -0.93356759626729
C          161.77912605402506       -1.23057066381636       -0.61519991327821
N          163.11156723591498       -1.41215111606836       -0.69751113370945
N          166.02960542226160       -1.47100694472262       -0.67548752081323
C          164.59640435803894        4.73765515372289        1.05312015485125
C          164.15952233733498        5.72351451012197        0.15814991276656
O          163.74323054275862        5.27981818346687       -1.05784742939875
C          163.29096563385167        6.19373682385262       -2.03678021625945
C          164.17722991789364        7.06830004458038        0.52643690425076
C          164.62515817891787        7.42147563975547        1.79032873351471
C          165.05555619408963        6.46320032115820        2.69533599907679
C          165.04263172078626        5.11854212465309        2.32603538409489
O          165.43166518188465        4.10751530946477        3.14580806641520
C          165.94150813809387        4.38490742726355        4.43451042233645
H          160.02751955942895        2.51854814877527        0.49107222128926
H          161.91525441603187        4.34600968279316        0.99998047069869
H          163.80554315480890        0.73198036404399       -0.08777551954657
H          167.23199430244205        4.36242768721112        0.89634261273526
H          169.11437748770746        2.50233240839325        0.40062512112444
H          169.08680625803180       -2.59076939577566       -1.00476983800923
H          167.19262005175011       -4.40205889426434       -1.56287482732892
H          165.45187108415016       -5.31798560147020        2.56842458874242
H          166.17241540478904       -6.61271062377270        1.57631476347213
H          164.42212971978157       -6.63460496621454        1.94659116086019
H          164.93375451784968       -7.78758225387286       -0.04707429434185
H          164.42359869086224       -8.61121263433485       -2.31069150495859
H          163.99702033479994       -7.00588370208266       -4.15351407586897
H          164.15411439580154       -2.89015421186780       -5.18498932033145
H          163.42576789960702       -2.58221907895907       -3.58838071360707
H          165.18820477227433       -2.84745181989736       -3.73373064073055
H          161.88881529479289       -4.41412293459632       -1.48183039460440