434
 energy: -766.224046329204 gnorm: 0.000754970397 xtb: 6.5.1 (b24c23e)
C           45.04089973862870       -0.05435871155438       -0.00973732749922
C           45.66079469886746       -1.29590650402895       -0.07263310528185
C           45.04114176887841       -2.57690658941342       -0.14013006356118
C           46.02900115483980       -3.51997751630121       -0.18654159877209
C           47.28301652802897       -2.84516982675942       -0.14891345559986
N           47.00983691827305       -1.50961537052666       -0.08067452633492
C           48.54957906899529       -3.41742560142806       -0.17551990703476
C           49.77059021358134       -2.76003665708343       -0.13912057773379
C           51.04810270804590       -3.44988020071719       -0.17199871820245
C           51.99874447818488       -2.49399051163127       -0.12130575243336
N           49.96533942392564       -1.41472471375055       -0.06976752119324
C           51.29786121133946       -1.22387647131853       -0.05756672606264
C           51.95516797542735        0.02270282713310        0.00693109106644
C           51.31010787223435        1.27241388647951        0.06997701700967
C           51.92491493724823        2.55202800408056        0.13669611303954
C           50.93348599828520        3.49286048099659        0.18388497295386
C           49.68345019648278        2.81393616851696        0.14717957698630
N           49.96373033064846        1.47573670552553        0.07860953161544
C           48.41817542195552        3.38637220478040        0.17482189344117
C           47.19614818200136        2.72609834345453        0.13859130751229
C           45.91258192612283        3.40996039287840        0.17164401637766
C           44.96768457240351        2.44975790903051        0.12001108351950
C           45.67495886007558        1.18062554232968        0.05556368278419
N           47.01353072817253        1.38666002827426        0.06883816211440
H           43.95604162481172       -0.05850416378082       -0.01224029123892
H           43.97516698758105       -2.74000512044722       -0.15094945638063
H           45.91355438963291       -4.59082466461490       -0.24204187930018
H           47.70826227475189       -0.77492743400227       -0.04121258249468
H           48.57723216656177       -4.50095456552556       -0.23118836545733
H           51.16749462360655       -4.52058601310306       -0.22660810415591
H           53.07130570955517       -2.60635699352009       -0.12506153141383
H           52.99020063940268        2.71832952090892        0.14672885738143
H           51.04624667370796        4.56385438475352        0.23925444681510
H           49.26779795694963        0.73837317341158        0.03963839871427
H           48.39150199192554        4.46983106819212        0.23078256891873
H           45.78816322736473        4.48023207957347        0.22692203161987
H           43.89399540299808        2.55524434670679        0.12342418413230
C          220.15679674731723        0.04102491612611       -0.03514939584230
C          219.53711166944814        1.26627292528568       -0.24616886090095
C          220.15685472719147        2.52841970732928       -0.47488758089873
C          219.16930578125979        3.46027731953493       -0.62870722829839
C          217.91525890698873        2.79705931203116       -0.49933723650675
N          218.18817268216438        1.47945050979033       -0.27025049704446
C          216.64882511053648        3.36344366531839       -0.58679142591982
C          215.42786165486103        2.71659735586920       -0.46373597349649
C          214.15043838926468        3.39843966877648       -0.57444468006745
C          213.19975293108268        2.45634498737244       -0.40520257365918
N          215.23304812979720        1.38977240821568       -0.23096772206932
C          213.90052450329665        1.20274041515671       -0.19094381836340
C          213.24302520440241       -0.02642686930542        0.02585391857642
C          213.88779437830235       -1.25912633572348        0.24152592847643
C          213.27275090062622       -2.51998330523880        0.46916984756838
C          214.26400496423176       -3.44816700092158        0.63108513388238
C          215.51416617309232       -2.78004113242842        0.50613701768213
N          215.23413074574063       -1.46065786386333        0.27199969748910
C          216.77935455325951       -3.34568992337098        0.59960814947104
C          218.00140679119517       -2.69644386540746        0.47405316249019
C          219.28491840440191       -3.37236809093922        0.58367834342395
C          220.22979597922043       -2.42742427008408        0.40536979724049
C          219.52260259035194       -1.17538416117887        0.18778626878190
N          218.18407420939684       -1.37645731036558        0.23608114381835
H          221.24161856391441        0.04319057128665       -0.04624466640165
H          221.22279961151145        2.68731448727220       -0.51378289570849
H          219.28498775756921        4.51610489598068       -0.81575569482262
H          217.48962675107180        0.75620183552003       -0.13587214273137
H          216.62118279921401        4.43217821790590       -0.77374406982741
H          214.03110762396327        4.45479388412302       -0.75755174027475
H          212.12722322663996        2.56826529420986       -0.41834044560978
H          212.20744009514019       -2.68299170182729        0.50288235398858
H          214.15106749496815       -4.50375719972485        0.82025549733052
H          215.93021935739139       -0.73446171075506        0.13914960229652
H          216.80591903102689       -4.41366323702077        0.79053923010985
H          219.40932342990601       -4.42745890918896        0.77162169128499
H          221.30343532341914       -2.53301392102760        0.41429943512567
C           53.35843213866503        0.03245940896338        0.00870037469009
C           54.58325563606882        0.04435223057854        0.00799414106525
C           55.92490522367704        0.05223357229128        0.00993219850617
C           57.15586682307613        0.05896739437074        0.00839084358954
C           58.49268880627744        0.06370485401542        0.00696103235238
C           59.72370619328947        0.06632744553518        0.00489564132777
C           61.06506846633096        0.06638788832797        0.00284874497075
C           62.29011624963238        0.06270578201108        0.00125078013651
C           72.06439106365393        0.00123866675646       -0.00457921795259
C           73.28942995001499       -0.00573215389031       -0.00559229204217
C           74.63028340128972       -0.01141446390032       -0.00430497000054
C           75.86138907983724       -0.01544675599801       -0.00556561061292
C           77.19760847227401       -0.01804957806191       -0.00307209315556
C           78.42871110026242       -0.02058993964990       -0.00304292639699
C           79.76953681316999       -0.01887242843445       -0.00484803732729
C           80.99455764411772       -0.02039523045953       -0.00451041726084
C           90.75973880189278       -0.00925564636050        0.00516593770493
C           91.98471089825692       -0.00685028663106        0.00767636695024
C           93.32535497724504       -0.00203029337752        0.01043535971567
C           94.55637814060771        0.00038719824544        0.01324035172477
C           95.89239466740112        0.00278460579031        0.01414870726362
C           97.12341785851154        0.00416752975464        0.01563022933320
C           98.46406259627273        0.00709866935747        0.01556686764808
C           99.68902635974584        0.00620160601814        0.01324204325488
C          109.44893760191287       -0.01138380707137       -0.03089974688192
C          110.67387213077431       -0.01287948903131       -0.03120061310011
C          112.01442436480058       -0.00862197002334       -0.02996164584295
C          113.24540682723099       -0.00564755437272       -0.02864396410445
C          114.58132346704208       -0.00456876985884       -0.02492678507931
C          115.81229658215743       -0.00382329492794       -0.01999402092222
C          117.15283860940281       -0.00130211968664       -0.01509758580435
C          118.37775866473811       -0.00105107450305       -0.01052484645447
C          128.13571539815354       -0.01550751357601        0.00495998784804
C          129.36061005016205       -0.01368461317651        0.00834547943020
C          130.70112693865090       -0.00713215768750        0.01207957612631
C          131.93216979644589       -0.00422805096292        0.01495922737339
C          133.26806452984434        0.00208792940664        0.01671041934994
C          134.49900725391058        0.00946260243847        0.01712203747474
C          135.83951492543846        0.01358933476719        0.01740647881004
C          137.06442785072977        0.01365182861158        0.01911309034925
C          146.82206701675182       -0.00843108669766       -0.03628200931390
C          148.04694834621606       -0.01096360522846       -0.04621655986195
C          149.38747202456651       -0.01111243288830       -0.05475340142679
C          150.61843746145865       -0.01133074029392       -0.06020419013435
C          151.95434660972782       -0.01136395186975       -0.06347959530072
C          153.18532828113570       -0.01194096407424       -0.06283738107925
C          154.52586926408088       -0.00913159539796       -0.05754280672940
C          155.75076904806869       -0.00868525783877       -0.04903706920127
C          165.50990752561671       -0.00861362229703        0.05281367617187
C          166.73487615679861       -0.00795867415556        0.05414910688385
C          168.07551910353607       -0.00551211201713        0.05182811226314
C          169.30654541490958       -0.00481410479737        0.04615427327608
C          170.64252621477999       -0.00228944213611        0.03853545594006
C          171.87350277026633        0.00055266261307        0.02874727178591
C          173.21410670319017        0.00328063613488        0.01857801793648
C          174.43902581569287        0.00333133816719        0.00750905237099
C          184.20373228094502        0.00788590646825       -0.01264275440573
C          185.42876549562533        0.00817365746296       -0.00874164368232
C          186.76959099555842        0.00907350214033       -0.00478856039139
C          188.00070054139215        0.00420118971727       -0.00031763076281
C          189.33691415712090        0.00330613096867        0.00121947614835
C          190.56802078920228        0.00075368185522        0.00330523517496
C          191.90886733367057       -0.00328438674346        0.00344682927924
C          193.13388967182803       -0.01039535062911        0.00343784158207
C          202.90805745995817       -0.06657633902983       -0.00339632559469
C          204.13309337539664       -0.06906601072203        0.00130065347107
C          205.47447040271456       -0.06787597527729        0.00688300106517
C          206.70549782246275       -0.06601623758967        0.01285219903119
C          208.04234729263038       -0.06186683211723        0.01868189687938
C          209.27329842881917       -0.05414556304300        0.02200752703742
C          210.61492344422786       -0.04422566484942        0.02718125555802
C          211.83972799370403       -0.03526974255660        0.02903433288002
C           63.69238650163845        0.05843503359622       -0.00119586910374
C           64.33651452259910        1.31100733155803       -0.01230022347368
C           63.72429771227255        2.59221223680427       -0.02253030070916
C           64.71882658982682        3.53228945214520       -0.03231866614856
C           65.96582027473144        2.84951751439968       -0.02814263637399
N           65.68347892053359        1.51095545317266       -0.01602593401714
C           67.23286393285434        3.42290656000710       -0.03468439577334
C           68.45811375006329        2.77493519897838       -0.02978941356562
C           69.72976435574314        3.47602606301469       -0.03659604291655
C           70.68835434454080        2.52669897404186       -0.02810029373823
N           68.66383530607860        1.42932128219964       -0.01771412819469
C           69.99781086342659        1.24994476890516       -0.01636916372271
C           70.66259227387700        0.00580750912296       -0.00529309561387
C           70.01896819276718       -1.24694102327739        0.00517695758776
C           70.63156386054955       -2.52807876825132        0.01572491594362
C           69.63724400347301       -3.46827779755530        0.02310345006089
C           68.39001443329096       -2.78569783243914        0.01739710396792
N           68.67225570800424       -1.44695435217371        0.00658699750097
C           67.12307134889842       -3.35857382578811        0.02203300021332
C           65.89770821684921       -2.71017777305991        0.01748517303752
C           64.62634347429015       -3.41157177477019        0.02387562824227
C           63.66745370074311       -2.46248498981807        0.01769437268408
C           64.35741953404887       -1.18552362055637        0.00734449333124
N           65.69180061130716       -1.36477233277743        0.00737007179404
H           62.65947177751595        2.76130559265938       -0.02246172742185
H           64.60871878127510        4.60492253120163       -0.04159634758676
H           66.37543357352081        0.76883990449829       -0.01060061752863
H           67.25438386703428        4.50813899662700       -0.04440944897949
H           69.84016090878728        4.54902439427574       -0.04640941375044
H           71.75998262894821        2.64756032605833       -0.02947693540184
H           71.69643507654202       -2.69695139646260        0.01727605782922
H           69.74765798298134       -4.54088484922570        0.03181209706493
H           67.98027950085763       -0.70489295934447        0.00046023797328
H           67.10115630225751       -4.44380843033991        0.03056717031929
H           64.51637827321518       -4.48462083129277        0.03206468789006
H           62.59590543491285       -2.58376168642146        0.01962544655335
C           82.39640009969239       -0.01535313485174       -0.00468143537207
C           83.02992111963863        1.24257655981759       -0.01950607720904
C           82.40592283916605        2.51812153720672       -0.03519026566621
C           83.39171397209782        3.46726368965416       -0.04635163361684
C           84.64478547654576        2.79587603053873       -0.03766607988987
N           84.37480569113178        1.45471033503896       -0.02155539924896
C           85.90688266684387        3.37968243666340       -0.04388810364590
C           87.13641003527016        2.73994879296393       -0.03485134953720
C           88.40359517696152        3.44884784986045       -0.04188866519837
C           89.36791403771696        2.50541092532378       -0.02885740027281
N           87.35015305763743        1.39561767009255       -0.01813820874312
C           88.68514578610768        1.22446658380477       -0.01416846119714
C           89.35809976238400       -0.01510738351048        0.00187279477961
C           88.72497891377442       -1.27312009606487        0.01554010904571
C           89.34920056730056       -2.54858924990126        0.03117579276991
C           88.36351677853881       -3.49783172388904        0.04054912252928
C           87.11031336178389       -2.82656813494920        0.03108329813352
N           87.38020341605406       -1.48534120505115        0.01600640506529
C           85.84819435796166       -3.41009243721746        0.03635553064422
C           84.61862693822144       -2.77015154054961        0.02799156366473
C           83.35157325414880       -3.47920755801228        0.03539605434856
C           82.38707566658793       -2.53589637285835        0.02422082247355
C           83.06953063427275       -1.25484557633015        0.00989001777197
N           84.40469487711030       -1.42588939305125        0.01246393458275
H           81.33960846012322        2.67747235378975       -0.03754529838911
H           83.27179459023037        4.53879314733615       -0.05939134072626
H           85.07401271138876        0.71950471405333       -0.01232049191601
H           85.92031208042884        4.46496655943855       -0.05709508374670
H           88.50734695250813        4.52246336769906       -0.05497415452183
H           90.43876832463717        2.63284496956195       -0.02896192445912
H           90.41555600567298       -2.70774159077711        0.03454377957190
H           88.48363628334293       -4.56934830574511        0.05299589784493
H           86.68098692644611       -0.75016178289625        0.00659596110672
H           85.83457757810051       -4.49538535428734        0.04878261340014
H           83.24807675991163       -4.55285658869275        0.04759783876037
H           81.31624812623562       -2.66347340878215        0.02515478770455
C          101.09069711337989        0.00782118081584        0.00869168859245
C          101.72710074595543        1.26414492444806       -0.00739882017111
C          101.10570388810550        2.54105250246717       -0.01755023333123
C          102.09341533303372        3.48811885810104       -0.03251007338694
C          103.34502047254044        2.81398197605239       -0.03199947707228
N          103.07231993315224        1.47334665444273       -0.01628240178836
C          104.60856832817440        3.39434097205528       -0.04548457691964
C          105.83579706430272        2.75016432257984       -0.04573655404969
C          107.10555083018673        3.45421740644213       -0.06060643118484
C          108.06626387335604        2.50705116888134       -0.05527117435157
N          106.04437914420019        1.40496675758629       -0.03215823212747
C          107.37867058463182        1.22869967326797       -0.03738881728195
C          108.04735375270678       -0.01320587066031       -0.02670685961287
C          107.41112518838246       -1.26957181638139       -0.01024594808491
C          108.03263144265715       -2.54643984240194        0.00022408009059
C          107.04497870405133       -3.49355004231864        0.01568244053698
C          105.79331650616940       -2.81947215082871        0.01524939062894
N          106.06595844191227       -1.47882065432865       -0.00092648452443
C          104.52975402051122       -3.39969997972603        0.02902436135361
C          103.30251969235924       -2.75542946074947        0.02896718081619
C          102.03282612412134       -3.45955390079951        0.04379598846207
C          101.07203396880863       -2.51245900638831        0.03793919250564
C          101.75948119618960       -1.23405130701090        0.01972713044923
N          103.09384343783439       -1.41026357536753        0.01493741452479
H          100.03972299589067        2.70261650032470       -0.01370530692596
H          101.97573490673611        4.55992005359254       -0.04310293645185
H          103.77024727949198        0.73689799873568       -0.01228162135585
H          104.62538019142187        4.47957141982485       -0.05724685355350
H          107.21330749886931        4.52743829562802       -0.07319678938715
H          109.13756429211796        2.63039199693726       -0.06261055828226
H          109.09862842336895       -2.70792926533516       -0.00382564299066
H          107.16276181924830       -4.56533909719557        0.02655615785733
H          105.36801514928126       -0.74239477065593       -0.00494004880095
H          104.51286014025216       -4.48492661213786        0.04115986232192
H          101.92518756685067       -4.53278342584030        0.05668179699238
H          100.00074842257830       -2.63589397675204        0.04504864283429
C          119.77935258235549        0.00096628818304       -0.00688974698244
C          120.41513779674068        1.25758058704440       -0.02176696117212
C          119.79294525602411        2.53404369823701       -0.03890727754374
C          120.78008676485416        3.48175320531657       -0.04942785980755
C          122.03208356794302        2.80844481534921       -0.03905364374317
N          121.76020555809170        1.46765051745382       -0.02226939637856
C          123.29541166729891        3.38932313956925       -0.04519809972180
C          124.52265180016222        2.74525212904680       -0.03573560879695
C          125.79244066811523        3.44929220077122       -0.04387093970812
C          126.75308025477639        2.50214067248246       -0.03044949123254
N          124.73109721892739        1.40007257960211       -0.01783314570052
C          126.06538125735567        1.22380549553196       -0.01415090471510
C          126.73415393372738       -0.01798125172621        0.00316603079310
C          126.09846472471224       -1.27459822633499        0.01875486533591
C          126.72068200824104       -2.55104905722556        0.03607382094366
C          125.73354438767045       -3.49875274770554        0.04749900847889
C          124.48152671680396       -2.82545069349716        0.03739336090951
N          124.75340488814044       -1.48466419900419        0.02002129624641
C          123.21818258016424       -3.40627387945400        0.04392890430396
C          121.99092625288523       -2.76219248292971        0.03400538136900
C          120.72115006596923       -3.46626357444675        0.04181221423198
C          119.76047881351778       -2.51914950464030        0.02744430116447
C          120.44812564007162       -1.24079933153636        0.01106968739324
N          121.78243707271014       -1.41703379442556        0.01556196668668
H          118.72685264484818        2.69488140979297       -0.04251489266184
H          120.66176690839279        4.55344668246935       -0.06318923193658
H          122.45867053197945        0.73178139471805       -0.01193684247069
H          123.31204155005867        4.47451971773992       -0.05925137964968
H          125.90025771993560        4.52248578422558       -0.05800197241108
H          127.82439674082725        2.62551355683640       -0.03111832564235
H          127.78678438394330       -2.71185997000575        0.03924630751066
H          125.85188765523830       -4.57044023330837        0.06164190279285
H          124.05494409438278       -0.74879421039704        0.00968629359576
H          123.20153176524337       -4.49146627475922        0.05840033335944
H          120.61337242826413       -4.53945687693872        0.05630923011948
H          118.68916277097546       -2.64253058588666        0.02759916252752
C          138.46598804102553        0.01563325447882        0.01726155876937
C          139.10252534633287        1.27182063831784        0.00037410483606
C          138.48125148118007        2.54880093029878       -0.01132326983841
C          139.46907516037282        3.49576346668824       -0.02534381761073
C          140.72059884870396        2.82146786559049       -0.02324009146167
N          140.44773568280485        1.48086121805204       -0.00729893385572
C          141.98436154999186        3.40129530404689       -0.03613234482570
C          143.21112421887329        2.75618152198147       -0.03721730091583
C          144.48141067107215        3.45918810107953       -0.05401452967504
C          145.44133327100545        2.51120470149127       -0.05181873237079
N          143.41858924834165        1.41080032511552       -0.02459075298331
C          144.75272971191939        1.23340647238038       -0.03303599353888
C          145.42052293182954       -0.00896876881697       -0.02421875100787
C          144.78384035839761       -1.26504138310594       -0.00271584211565
C          145.40513325903393       -2.54199595609375        0.01010946209367
C          144.41737285540702       -3.48887926358607        0.03124042046602
C          143.16588751670153       -2.81455595794929        0.03145006483064
N          143.43867394693771       -1.47400022593771        0.01074114386872
C          141.90218764947352       -3.39440058352271        0.04807443172663
C          140.67545791804329       -2.74931693549459        0.04589887014339
C          139.40516308100464       -3.45231277290248        0.06134154461435
C          138.44524405037717       -2.50439439587878        0.05169416564759
C          139.13390663886165       -1.22664042708986        0.03126752558529
N          140.46803953879484       -1.40397344743727        0.02816342488255
H          137.41527592949245        2.71045393355434       -0.00884096737319
H          139.35151416685704        4.56757394476044       -0.03651779721442
H          141.14566764925243        0.74443566855816       -0.00220354141268
H          142.00181761664038        4.48651072527049       -0.04771949754094
H          144.59000701707672        4.53233150036347       -0.06591323279671
H          146.51271727705532        2.63364628305767       -0.06133447335492
H          146.47107978484354       -2.70371415699931        0.00403256064074
H          144.53494889944091       -4.56064949797652        0.04534761523969
H          142.74073216382712       -0.73757791646521        0.00595479745578
H          141.88476973950017       -4.47956543996218        0.06340392086961
H          139.29654632213021       -4.52540376267327        0.07690809376573
H          137.37384404025553       -2.62689102442821        0.05785231411833
C          157.15228362668850       -0.00469253362736       -0.03525052014068
C          157.78641486901975        1.25278724482784       -0.04818103050351
C          157.16277580735846        2.52835161533438       -0.07620991916050
C          158.14874154496167        3.47733630147278       -0.07856516372867
C          159.40145987496879        2.80575789366377       -0.05205594138351
N          159.13113149183502        1.46464882207951       -0.03472713386483
C          160.66394966773294        3.38842171372098       -0.04477283201683
C          161.89215132999820        2.74649732803048       -0.01978609978230
C          163.16065813405709        3.45289898881140       -0.01628369693087
C          164.12291266744558        2.50758293716512        0.00794339569074
N          162.10294245264134        1.40178283228919        0.00309685203269
C          163.43751770414804        1.22799941056752        0.01986754106850
C          164.10826357637001       -0.01258690475224        0.04513619267042
C          163.47397093386974       -1.26999071423618        0.06068787453483
C          164.09749408344493       -2.54558585891805        0.08927789728670
C          163.11142485969609       -3.49445835061016        0.09546499658483
C          161.85874307584010       -2.82279964539705        0.07024625593212
N          162.12916517633195       -1.48175474731074        0.05042523721145
C          160.59623648224706       -3.40554929621870        0.06490645865938
C          159.36804921728901       -2.76375328531172        0.03819990863556
C          158.09949287504602       -3.47010567740478        0.03384999497849
C          157.13735146260254       -2.52479412744042        0.00559990247991
C          157.82288115102293       -1.24527220299666       -0.00707584622462
N          159.15736189850750       -1.41905924762505        0.01266163811393
H          156.09657941813447        2.68775000064965       -0.09231759480959
H          158.02913532703235        4.54882045477250       -0.09690682180318
H          159.83029780645734        0.72966462564513       -0.01406580218869
H          160.67903472642010        4.47361551228140       -0.06125343953490
H          163.26657756527339        4.52627460421405       -0.03107201194364
H          165.19395456437528        2.63294051941638        0.01777099358441
H          165.16369799530042       -2.70509039515709        0.10342698323930
H          163.23091357900518       -4.56592755976234        0.11534432860968
H          161.43001350722619       -0.74674618886011        0.02991003916164
H          160.58121053604415       -4.49071345638214        0.08327549600566
H          157.99344493701707       -4.54344179837031        0.05052859736453
H          156.06631545295653       -2.65009067242879       -0.00610274720481
C          175.84061836114131        0.00798663590015       -0.00360819842116
C          176.47450047158756        1.26550442844999       -0.02552825233033
C          175.85105371920986        2.54134079767361       -0.04227220896391
C          176.83729288835355        3.48983369042513       -0.06261401920040
C          178.09006658742632        2.81773222649105       -0.05808930788116
N          177.81937997973645        1.47676601297070       -0.03589614291154
C          179.35254753212024        3.40033118476173       -0.07116584871024
C          180.58164507580196        2.75951365808684       -0.06246088115588
C          181.84920102370685        3.46761406773062       -0.07308563598837
C          182.81300677246315        2.52367887919540       -0.05669382406689
N          180.79458738236423        1.41516764805746       -0.04118203756241
C          182.12961832499960        1.24318714467983       -0.03719909150255
C          182.80191061187139        0.00329986134682       -0.01792398469707
C          182.16764099282895       -1.25424086772777       -0.00336152502077
C          182.79086378857758       -2.53017171237443        0.01189115982926
C          181.80449341765598       -3.47873741063955        0.02104081207099
C          180.55183042550564       -2.80658320678282        0.01237136778588
N          180.82263030067031       -1.46557142698782       -0.00259417414160
C          179.28934731771182       -3.38954505965397        0.01953030935311
C          178.06027979468084       -2.74887036019309        0.01568947931268
C          176.79257763339106       -3.45676591495104        0.02853996339656