140
 energy: -216.926191936820 gnorm: 27.838554558753 xtb: 6.5.1 (b24c23e)
Co          15.93285300000000        1.95830900000000        1.63034600000000
C           12.18176200000000        0.06482500000000       -0.02929400000000
C           12.83139400000000        0.91802600000000        0.76781400000000
C           12.16668700000000        1.83666500000000        1.68415500000000
C           13.09689300000000        2.54982400000000        2.29142000000000
C           14.40912400000000        2.12883400000000        1.78130500000000
N           14.24732600000000        1.08465800000000        0.82041300000000
C           15.59453700000000        2.65912300000000        2.14788400000000
C           15.62839900000000        3.77260700000000        3.12377600000000
C           15.14059800000000        5.03971200000000        2.77310500000000
C           15.18879700000000        6.09156600000000        3.69181400000000
C           15.72985400000000        5.89711500000000        4.97259500000000
N           15.76630900000000        7.00043600000000        5.89658900000000
C           16.30772100000000        6.90289100000000        7.24811100000000
C           16.22527400000000        4.62483500000000        5.31808300000000
C           16.17567300000000        3.57306700000000        4.39869900000000
C           16.89367600000000        2.18060400000000        1.60627200000000
C           18.17047800000000        2.87468700000000        1.81408800000000
C           19.11493200000000        2.16495100000000        1.23081700000000
N           17.04983400000000        1.09096600000000        0.91876500000000
C           18.44794100000000        1.01043200000000        0.64156900000000
C           19.05472300000000       -0.00094000000000       -0.00065800000000
C           18.30410300000000       -1.13441600000000       -0.58515000000000
C           18.84583600000000       -2.30184200000000       -0.90853900000000
C           17.81377000000000       -3.09313500000000       -1.54995800000000
C           16.71081000000000       -2.35406100000000       -1.58025300000000
N           16.93047800000000       -1.08105600000000       -0.97057300000000
C           15.44025600000000       -2.76973800000000       -2.22787500000000
C           15.47880900000000       -3.87076500000000       -3.22108600000000
C           16.22452500000000       -3.72738800000000       -4.39974900000000
C           16.28155700000000       -4.76818900000000       -5.33109800000000
C           15.59567000000000       -5.97495100000000       -5.09387900000000
N           15.63441100000000       -7.06529900000000       -6.03306300000000
C           16.37113500000000       -7.01965300000000       -7.29178100000000
C           14.85810000000000       -6.11605600000000       -3.90790800000000
C           14.80239600000000       -5.07533000000000       -2.97706100000000
C           14.27149200000000       -2.16746700000000       -1.93549700000000
C           12.97111600000000       -2.46423700000000       -2.53404800000000
C           12.09881800000000       -1.68798200000000       -1.92048300000000
C           12.83357100000000       -0.88727900000000       -0.94256700000000
N           14.10045200000000       -1.15829600000000       -0.94245900000000
H           11.09816300000000        0.06780300000000       -0.01082400000000
H           11.10124700000000        1.92611000000000        1.85323800000000
H           12.89752800000000        3.30883000000000        3.03650200000000
H           14.72486900000000        5.21176000000000        1.78778900000000
H           14.80501400000000        7.06212600000000        3.40352500000000
H           15.38672900000000        7.92617900000000        5.59337600000000
H           17.38003500000000        6.61809000000000        7.20633600000000
H           15.73772000000000        6.14872100000000        7.83037000000000
H           16.22174900000000        7.88452700000000        7.76018300000000
H           16.65178700000000        4.43694000000000        6.29384200000000
H           16.56277100000000        2.60129300000000        4.68020600000000
H           18.33033400000000        3.80358900000000        2.34558700000000
H           20.16710600000000        2.41590000000000        1.21151100000000
H           19.87256400000000       -2.60459900000000       -0.75230500000000
H           17.93308900000000       -4.09070100000000       -1.95246900000000
H           16.75958700000000       -2.80666100000000       -4.59834900000000
H           16.86291100000000       -4.62316700000000       -6.23127900000000
H           15.10939400000000       -7.94182400000000       -5.81156500000000
H           15.98276400000000       -6.19654800000000       -7.92768700000000
H           16.24460000000000       -7.97856000000000       -7.83741000000000
H           17.45240300000000       -6.86615600000000       -7.09177800000000
H           14.32683900000000       -7.03690700000000       -3.70247900000000
H           14.23531700000000       -5.20874800000000       -2.06387800000000
H           12.74080100000000       -3.16986400000000       -3.32132400000000
H           11.03559000000000       -1.65624900000000       -2.11917200000000
Co          32.72044100000000       -2.02015100000000       -1.55681300000000
C           36.47153200000000        0.01265600000000       -0.07108700000000
C           35.82189900000000       -0.95141300000000       -0.72980100000000
C           36.48660600000000       -2.04612000000000       -1.42636000000000
C           35.55640000000000       -2.79436300000000       -1.98982900000000
C           34.24416900000000       -2.20468000000000       -1.69029100000000
N           34.40596800000000       -1.03910400000000       -0.88094100000000
C           33.05875700000000       -2.67813600000000       -2.12781400000000
C           33.02489400000000       -3.87347400000000       -3.00152900000000
C           33.51269500000000       -3.80773500000000       -4.31461900000000
C           33.46449700000000       -4.93382000000000       -5.14066500000000
C           32.92344000000000       -6.14131100000000       -4.67143400000000
N           32.88698500000000       -7.28378500000000       -5.54655500000000
C           32.34557200000000       -8.58145600000000       -5.15645900000000
C           32.42801900000000       -6.20086300000000       -3.35442600000000
C           32.47762000000000       -5.07413700000000       -2.52861000000000
C           31.75961800000000       -2.04516100000000       -1.77900500000000
C           30.48281500000000       -2.39941800000000       -2.41101800000000
C           29.53836200000000       -1.67533800000000       -1.84565300000000
N           31.60345900000000       -1.13646200000000       -0.86563600000000
C           30.20535200000000       -0.84837300000000       -0.84752700000000
C           29.59857000000000       -0.00094000000000       -0.00065800000000
C           30.34919000000000        0.81679200000000        0.97797000000000
C           29.80745700000000        1.38712100000000        2.04670300000000
C           30.83952300000000        2.18574400000000        2.67897200000000
C           31.94248300000000        2.05404300000000        1.95109600000000
N           31.72281600000000        1.18128500000000        0.84179700000000
C           33.21303700000000        2.77676000000000        2.21544600000000
C           33.17448400000000        3.98628300000000        3.07322400000000
C           32.42876800000000        5.10526000000000        2.67611900000000
C           32.37173600000000        6.24127000000000        3.48862100000000
C           33.05762400000000        6.27308100000000        4.71806600000000
N           33.01888300000000        7.42754800000000        5.57721300000000
C           32.28215800000000        8.64597600000000        5.25801400000000
C           33.79519400000000        5.14647600000000        5.11454900000000
C           33.85089800000000        4.01097300000000        4.30201100000000
C           34.38180100000000        2.36001200000000        1.69148400000000
C           35.68217700000000        3.00889600000000        1.85050000000000
C           36.55447500000000        2.24073700000000        1.22682900000000
C           35.81972200000000        1.11167100000000        0.65879900000000
N           34.55284100000000        1.17070200000000        0.92331000000000
H           37.55513100000000       -0.00601900000000       -0.06996300000000
H           37.55204599999999       -2.23064600000000       -1.47675600000000
H           35.75576499999999       -3.68710700000000       -2.56797000000000
H           33.92842400000000       -2.88370100000000       -4.69751600000000
H           33.84827900000000       -4.86425400000000       -6.15074300000000
H           33.26656400000000       -7.18987400000000       -6.51615200000000
H           31.27325800000000       -8.47854400000000       -4.88763600000000
H           32.91557400000000       -8.98512600000000       -4.29341200000000
H           32.43154400000000       -9.29538100000000       -6.00270700000000
H           32.00150700000000       -7.11211200000000       -2.95814700000000
H           32.09052200000000       -5.13682000000000       -1.51882600000000
H           30.32295900000000       -3.12079700000000       -3.20156500000000
H           28.48618799999999       -1.71125400000000       -2.09476800000000
H           28.78072900000000        1.30071200000000        2.37625500000000
H           30.72020400000000        2.79622400000000        3.56467300000000
H           31.89370600000000        5.09817200000000        1.73424300000000
H           31.79038299999999        7.08811700000000        3.15067500000000
H           33.54390000000000        7.40264500000000        6.48094700000000
H           32.67052900000000        9.08695800000000        4.31598900000000
H           32.40869300000000        9.38769100000000        6.07476000000000
H           31.20089000000000        8.41730000000000        5.15185700000000
H           34.32645400000000        5.14692600000000        6.05803700000000
H           34.41797700000000        3.14890500000000        4.63147100000000
H           35.91249200000000        3.93116900000000        2.36734100000000
H           37.61770299999999        2.42771400000000        1.15250600000000
C           19.82275300000000        0.01551500000000        0.01085300000000
C           21.28097900000000       -0.00632100000000       -0.00702000000000
C           22.41490800000000       -0.02707500000000       -0.00851100000000
C           23.77628900000000       -0.03966500000000       -0.01070200000000
C           25.05050800000000       -0.02935800000000       -0.01546700000000
C           26.23897100000000       -0.01056000000000       -0.02162400000000
C           27.59133100000000        0.01422400000000       -0.00575600000000
C           28.69159900000000        0.01551500000000        0.01085300000000
140
 energy: -228.960801806708 gnorm: 5.274485582167 xtb: 6.5.1 (b24c23e)
Co          15.86439021866861        1.77843361508568        1.52538932908929
C           12.18185172138775        0.06389777317078       -0.03018137188077
C           12.83192698724809        0.91839383175400        0.76825992528400
C           12.16634329257967        1.83601883318023        1.68356828569062
C           13.09760475312013        2.55020761328570        2.29177780032003
C           14.39739929514928        2.12793986448907        1.78109165958432
N           14.24622404359852        1.08544016783139        0.82107036946238
C           15.52339224490042        2.80854599561926        2.25907539393881
C           15.62731416590829        3.77424553767648        3.12481047607059
C           15.14062563648210        5.04004034522620        2.77346989037892
C           15.18881981386933        6.09141441626335        3.69170419989101
C           15.72989871055756        5.89768362026381        4.97314021089023
N           15.76612955348433        7.00023140134852        5.89596952059962
C           16.30772975252404        6.90287066675328        7.24811870236550
C           16.22524629489360        4.62477443207226        5.31791768398638
C           16.17562107152036        3.57337704873134        4.39884642310525
C           17.04029681700793        2.21559754913965        1.60349680022262
C           18.17141870880846        2.87521179669990        1.81430163622263
C           19.11550240455209        2.16389803274193        1.23009930759823
N           17.05458333983382        1.08583579022667        0.91455559627969
C           18.44458236219224        1.01318703924640        0.64340790486943
C           18.98293806361126       -0.00367833020846       -0.00239946169551
C           18.30063781572149       -1.13448530133098       -0.58584919167493
C           18.84606591433345       -2.30329902234301       -0.90910452670453
C           17.81537271398985       -3.09352116801162       -1.54972083829219
C           16.70953334027871       -2.35302217037218       -1.58032982125100
N           16.93124837530542       -1.08150919530273       -0.97056674869739
C           15.44121180614947       -2.76959937434425       -2.22758916545020
C           15.47890401678662       -3.87076436951299       -3.22100169880485
C           16.22446097605394       -3.72768026698964       -4.39978068968494
C           16.28146533842299       -4.76817151543349       -5.33094670627429
C           15.59572324183426       -5.97538800344227       -5.09432217717569
N           15.63417077232390       -7.06518695717143       -6.03255189462580
C           16.37113201175632       -7.01963721397954       -7.29176061818401
C           14.85814267911742       -6.11590371624380       -3.90786401112239
C           14.80246673404817       -5.07538362089392       -2.97733755469887
C           14.27101274536023       -2.16702055933797       -1.93515485874902
C           12.97157035238378       -2.46450281332077       -2.53422652879887
C           12.09825438703867       -1.68758048429274       -1.92017679983575
C           12.83268292016971       -0.88680505809969       -0.94216460348708
N           14.10086493629627       -1.15886541400541       -0.94297106333838
H           11.09816085653728        0.06780458240803       -0.01086099087126
H           11.10127888277438        1.92603253840790        1.85316616969360
H           12.89770102704560        3.30885017678344        3.03649503706994
H           14.72486055198825        5.21173730600005        1.78779287047219
H           14.80501754472750        7.06214529967406        3.40353759785805
H           15.38693782887820        7.92561577250828        5.59350183933416
H           17.37983743496511        6.61812298155156        7.20638019224215
H           15.73785669518605        6.14884951631400        7.83028771352661
H           16.22174464116420        7.88431088320103        7.76000892129313
H           16.65179003263217        4.43696007156833        6.29385535180466
H           16.56276037862307        2.60126880535055        4.68019700131377
H           18.33015447009314        3.80361317999677        2.34563460848814
H           20.16709728116806        2.41576949954201        1.21141737592774
H           19.87255632387670       -2.60463204679030       -0.75229619493627
H           17.93314170882246       -4.09068972371469       -1.95242096132214
H           16.75957848729388       -2.80666265866324       -4.59833452115512
H           16.86291140947735       -4.62318889631732       -6.23130591207487
H           15.10968698268222       -7.94128597309339       -5.81164899492488
H           15.98287327868600       -6.19668744608565       -7.92759696851421
H           16.24459833000093       -7.97835116937229       -7.83723992869723
H           17.45221916846090       -6.86616262841435       -7.09185485873294
H           14.32684010051953       -7.03693542200807       -3.70249213532616
H           14.23532597820071       -5.20873514841053       -2.06387616840192
H           12.74093132983857       -3.16986707032423       -3.32130455359179
H           11.03557398425357       -1.65617431395204       -2.11910312223231
Co          32.78897144958157       -1.87835433038798       -1.40411133178201
C           36.47143735487271        0.01375618593274       -0.07035480149005
C           35.82135217688602       -0.95194555695602       -0.73005954219227
C           36.48692917636161       -2.04539513307934       -1.42585082438838
C           35.55567355991043       -2.79480907076709       -1.99013533482303
C           34.25581416437796       -2.20426385352500       -1.68947275989030
N           34.40700622212924       -1.03994434948770       -0.88158186618206
C           33.12981258088831       -2.81923222710942       -2.24936764609594
C           33.02600090676885       -3.87486094137862       -3.00290586613662
C           33.51266382186728       -3.80816163076935       -4.31485239181988
C           33.46447240601278       -4.93368010478528       -5.14054237942339
C           32.92339497887279       -6.14197030144428       -4.67187254604716
N           32.88716498168059       -7.28313080533554       -5.54648602198064
C           32.34556300035479       -8.58145983419009       -5.15643704038610
C           32.42804399465627       -6.20068810944669       -3.35440482416799
C           32.47767291045647       -5.07434005434094       -2.52888164636444
C           31.61313216621507       -2.05017067012243       -1.81381260954964
C           30.48177208342073       -2.39969065533961       -2.41144715975090
C           29.53781193006683       -1.67454494099743       -1.84493065467651
N           31.59879635212787       -1.13120008770761       -0.86152113201642
C           30.20765726968346       -0.85009038729681       -0.84909747213759
C           29.63355603267954       -0.00064413088125        0.00001669559355
C           30.35175304597607        0.81690520830928        0.97719285354700
C           29.80732063216690        1.38811086782617        2.04812074230361
C           30.83784337885784        2.18559594646750        2.67942825823902
C           31.94387206241728        2.05393684254572        1.95007756969014
N           31.72208367434772        1.18138099258661        0.84228663986265
C           33.21199698757084        2.77644573844210        2.21538150561309
C           33.17439395154891        3.98620306325312        3.07324846344638
C           32.42883526199117        5.10535179319778        2.67639622321424
C           32.37182868899642        6.24111981373226        3.48864013691206
C           33.05757060225157        6.27360089539960        4.71838939617479
N           33.01912344223413        7.42703130324454        5.57722046464156
C           32.28216197780910        8.64595103222641        5.25800349015839
C           33.79515032033049        5.14640327134918        5.11441109072367
C           33.85082479073762        4.01125458544459        4.30200101382989
C           34.38231605699215        2.35954021250370        1.69108143595839
C           35.68171935863215        3.00912839949173        1.85072038040277
C           36.55504376248498        2.24034640804776        1.22650350259322
C           35.82064513157543        1.11115392692465        0.65840740093178
N           34.55239961125999        1.17135616191438        0.92377925153281
H           37.55513261029095       -0.00598303116195       -0.06997657464586
H           37.55201341692320       -2.23056036339908       -1.47669661015512
H           35.75559302516209       -3.68710582608774       -2.56799187050140
H           33.92843317749925       -2.88370032548482       -4.69749221802965
H           33.84827542227291       -4.86427050992349       -6.15075895870036
H           33.26635534753789       -7.18987373776835       -6.51557508709511
H           31.27345583402693       -8.47859409554970       -4.88765863018762
H           32.91543725706848       -8.98507349363515       -4.29355565659429
H           32.43154840518145       -9.29516383558766       -6.00253408100191
H           32.00150407056340       -7.11212917229564       -2.95816371042051
H           32.09053391875160       -5.13680598970709       -1.51880457470659
H           30.32314742263363       -3.12085728398964       -3.20158084176227
H           28.48620203195593       -1.71114704907047       -2.09467377578739
H           28.78074148992367        1.30071661602893        2.37629852206403
H           30.72015857350624        2.79618144884334        3.56467833772865
H           31.89371451069556        5.09815789819467        1.73424796752745
H           31.79038213303529        7.08814847187146        3.15069069122928
H           33.54360677574187        7.40260975105884        6.48040339842438
H           32.67041960134393        9.08690101866612        4.31614429272019
H           32.40869453037129        9.38748005510665        6.07459353782171
H           31.20107329361517        8.41737666763149        5.15184648669836
H           34.32645325943164        5.14694550303234        6.05806258566586
H           34.41796820851615        3.14890047780578        4.63145904157276
H           35.91236190985353        3.93115119914895        2.36734841626998
H           37.61772016271831        2.42763098049570        1.15244779852438
C           19.89911399536686        0.01649540848371        0.01143803852700
C           21.27642388129799       -0.00623006375184       -0.00701877897837
C           22.42063129317465       -0.02716544915966       -0.00851774846013
C           23.77542053696584       -0.03966782998254       -0.01071190814662
C           25.04751243250499       -0.02939015059417       -0.01545595455120
C           26.24262285428027       -0.01049186307897       -0.02160208814898
C           27.57991220199673        0.01423000297364       -0.00589130529847
C           28.66435612057573        0.01649616506606        0.01160944066396
140
 energy: -230.360334179259 gnorm: 3.125971475541 xtb: 6.5.1 (b24c23e)
Co          15.80393161116852        1.75033879839835        1.52001323747524
C           12.18251741868725        0.05758234691567       -0.03606843148914
C           12.83342173331590        0.91861626802782        0.77006421794683
C           12.16323539273382        1.83167537809356        1.67908711832252
C           13.09686165287863        2.55263945992042        2.29515847150696
C           14.34771147682046        2.12943035679716        1.78265062308974
N           14.23131809475830        1.09323283885818        0.82639909296413
C           15.53272753071149        2.79419435527475        2.24958784377322
C           15.62851799784707        3.78628442620305        3.13360502292794
C           15.13964131867091        5.04694468043893        2.77706389046704
C           15.18887564390073        6.09118726809380        3.69107533835967
C           15.73023606062651        5.90214621821652        4.97724068623153
N           15.76502370899214        6.99833335614901        5.89165401401460
C           16.30756454606285        6.90263719622973        7.24740686047786
C           16.22517807893073        4.62461968047226        5.31727629322835
C           16.17694127790261        3.57712012290213        4.40397392565145
C           17.09603484018617        2.24801956349614        1.61752674589720
C           18.17709667623099        2.88991361929140        1.82229822405484
C           19.12188108691547        2.15583333374908        1.22408139497187
N           17.09024584157006        1.07311459806785        0.90167506770239
C           18.42598719115312        1.03152852774592        0.65407451660232
C           18.88617142691890       -0.01450420092057       -0.00937996460191
C           18.27553217749452       -1.13628531658891       -0.59116672328290
C           18.84619021619559       -2.31436241196036       -0.91379544901725
C           17.82637767538127       -3.09633444806823       -1.54861165030232
C           16.70172004690903       -2.34609707180481       -1.58109503804286
N           16.93331085517626       -1.08582136446815       -0.97162775520599
C           15.44805773218355       -2.76774113580635       -2.22504246516238
C           15.48014976470039       -3.87068391117771       -3.21998346017353
C           16.22391830490893       -3.73006220913368       -4.39979671486684
C           16.28056358999102       -4.76864598037904       -5.33005255179604
C           15.59600077563953       -5.97855242614872       -5.09739033274166
N           15.63257010315117       -7.06406798563961       -6.02890765008669
C           16.37070703517491       -7.01937354305508       -7.29084762350005
C           14.85864669696910       -6.11495623906721       -3.90810990732125
C           14.80302622508853       -5.07550472766213       -2.97954393359373
C           14.26831941883981       -2.16414824330289       -1.93289456184144
C           12.97434455538654       -2.46573282485084       -2.53488247971413
C           12.09401574249497       -1.68459352513412       -1.91789518275228
C           12.82667267256409       -0.88416123466204       -0.93969467418107
N           14.10254182920550       -1.16288706417639       -0.94697948238037
H           11.09822408003869        0.06756106828023       -0.01157537259866
H           11.10104951287611        1.92490545449296        1.85209817793881
H           12.89959932634638        3.30958646072342        3.03685404596892
H           14.72499895246849        5.21163351203781        1.78820697281850
H           14.80509344070822        7.06237692395570        3.40365544405504
H           15.38881463974102        7.92034480972586        5.59437918480160
H           17.37792562078430        6.61844420508349        7.20682897528860
H           15.73924893813108        6.15011542540311        7.82949077286082
H           16.22169607428656        7.88223788051058        7.75821679914985
H           16.65178484366021        4.43714930309703        6.29393570665889
H           16.56256131134884        2.60148017207975        4.68003141760732
H           18.33033281247679        3.80603753200635        2.34724806777919
H           20.16829989428851        2.41351468153648        1.20970806434735
H           19.87275770172287       -2.60520238759763       -0.75216843851377
H           17.93415056432609       -4.09108054001887       -1.95201268400497
H           16.75933134512507       -2.80697984017120       -4.59815059600837
H           16.86278195888579       -4.62338568593086       -6.23138656132395
H           15.11221892119299       -7.93625966413015       -5.81213607410621
H           15.98393534624644       -6.19801245865082       -7.92670809700310
H           16.24448725177847       -7.97629376105483       -7.83546947920288
H           17.45039595076545       -6.86618336788391       -7.09261331624530
H           14.32689427533165       -7.03702685678832       -3.70259163598037
H           14.23555936750477       -5.20857611995141       -2.06412252667650
H           12.74248546820958       -3.17001538381464       -3.32119331871830
H           11.03481133100435       -1.65524654705613       -2.11836590018868
Co          32.84953755228569       -1.86717794133034       -1.37812164942279
C           36.47083980251263        0.02094885996458       -0.06541961060490
C           35.81992399479611       -0.95371476515972       -0.72989060162312
C           36.49003740429657       -2.03985681420404       -1.42249177654358
C           35.55606090644687       -2.79868934976539       -1.99179850827591
C           34.30582129930375       -2.20619788081486       -1.69072837993708
N           34.42175749886562       -1.04716495734563       -0.88811901933148
C           33.12052413121786       -2.80657727912955       -2.23725533075267
C           33.02479513610914       -3.88632236557333       -3.01286005490177
C           33.51360205287441       -3.81319778360893       -4.32074324505905
C           33.46442815771231       -4.93300692097303       -5.14047548641795
C           32.92305823685015       -6.14700539841542       -4.67538782197329
N           32.88827048967215       -7.27842425150721       -5.54550065774963
C           32.34572382291220       -8.58072269217955       -5.15635757985700
C           32.42808345008864       -6.20003497026939       -3.35437961347071
C           32.47638167962300       -5.08012647248993       -2.53145907368339
C           31.55758303466898       -2.07059489262456       -1.84187199790684
C           30.47549231803432       -2.41056189668022       -2.42403950533023
C           29.53118573665067       -1.66711309480853       -1.83857339476701
N           31.56350754675618       -1.11575479259512       -0.85201840853972
C           30.22877419788786       -0.86196862005242       -0.86184815915860
C           29.75266026130325        0.00391760211552        0.00622150879459
C           30.37667595473787        0.82006835049990        0.97553098046028
C           29.80709848423877        1.39505530961911        2.05744213444589
C           30.82661976197126        2.18497826282604        2.68241032050306
C           31.95183734028469        2.05306500056503        1.94284027127666
N           31.72083060969479        1.18380306439868        0.84682864053834
C           33.20532087823716        2.77363790074504        2.21411280330830
C           33.17315359638344        3.98520614173560        3.07341025870889
C           32.42938158332070        5.10589008982393        2.67871824110560
C           32.37272747150683        6.24035392945670        3.48930105039413
C           33.05729446743573        6.27727972175803        4.72080301566131
N           33.02072335742204        7.42323646306697        5.57692858820695
C           32.28258786959314        8.64500208454886        5.25794591027962
C           33.79464760622764        5.14644132069129        5.11343612465869