193
 energy: -380.943408615641 gnorm: 1.338148053636 xtb: 6.5.1 (b24c23e)
Fe          32.54472100000000       -0.05000700000000       -0.02159700000000
C           29.21158100000000        0.10100500000000        0.08481200000000
C           29.87839300000000        1.25795100000000        0.06341300000000
C           29.23002200000000        2.56356900000000        0.06220800000000
C           30.17366300000000        3.48564000000000        0.05424800000000
C           31.47880900000000        2.81059000000000        0.05217900000000
N           31.29882700000000        1.39436400000000        0.05721500000000
C           32.67275900000000        3.43548100000000        0.08209700000000
C           32.71028400000000        4.91418500000000        0.08961100000000
C           32.50094400000000        5.62945900000000       -1.09736300000000
C           32.52259800000000        7.02779900000000       -1.09442500000000
O           32.30832200000000        7.70897600000000       -2.29281300000000
C           32.75566300000000        7.72345700000000        0.10572600000000
O           32.77129100000000        9.11899000000000        0.10166100000000
C           32.96943800000000        7.00744400000000        1.29781900000000
O           33.20228300000000        7.69014200000000        2.49045900000000
C           32.94696100000000        5.60621400000000        1.28442500000000
C           33.97096700000000        2.71137600000000        0.12045200000000
C           35.27024000000000        3.38090200000000        0.25187600000000
C           36.20456600000000        2.45373300000000        0.23722200000000
N           34.10559000000000        1.42360200000000        0.01986700000000
C           35.51146099999999        1.17983100000000        0.08569400000000
C           36.10667000000000       -0.02087800000000       -0.02270300000000
C           35.35371100000000       -1.28640900000000       -0.20285400000000
C           35.91899999999999       -2.44835000000000       -0.50798100000000
C           34.87150400000000       -3.44741000000000       -0.53817900000000
C           33.72981500000000       -2.83324300000000       -0.25212300000000
N           33.94356600000000       -1.43652500000000       -0.02583400000000
C           32.42070400000000       -3.52695700000000       -0.13365400000000
C           32.40188800000000       -5.00573800000000       -0.15226000000000
C           32.54851800000000       -5.72374100000000        1.04114900000000
C           32.52723400000000       -7.12220200000000        1.03229100000000
O           32.66896300000000       -7.80748700000000        2.23902300000000
C           32.36390700000000       -7.81416900000000       -0.18169400000000
O           32.34707700000000       -9.20960300000000       -0.18271000000000
C           32.22200300000000       -7.09438800000000       -1.38223800000000
O           32.06456300000000       -7.77379100000000       -2.58944700000000
C           32.24017600000000       -5.69307600000000       -1.36222400000000
C           31.25803000000000       -2.86178200000000       -0.01155900000000
C           29.93410000000000       -3.46995300000000        0.10715600000000
C           29.07509000000000       -2.47130900000000        0.15889100000000
C           29.84120000000000       -1.22867800000000        0.07889800000000
N           31.11593300000000       -1.44343100000000       -0.02154700000000
H           28.12869800000000        0.13379000000000        0.10943300000000
H           28.16539500000000        2.75932900000000        0.07132200000000
H           29.98998200000000        4.55228900000000        0.06080500000000
H           32.31721300000000        5.09913700000000       -2.02405400000000
H           32.31329600000000        8.72041600000000       -2.34578800000000
H           32.92166500000000        9.65924500000000        0.94466700000000
H           33.35859700000000        7.19781700000000        3.36238100000000
H           33.10968800000000        5.05561400000000        2.20308500000000
H           35.45380699999999        4.44346200000000        0.34178900000000
H           37.26835400000000        2.63690900000000        0.31197700000000
H           36.96865200000000       -2.63325800000000       -0.68995500000000
H           35.00639799999999       -4.50217600000000       -0.74112300000000
H           32.67569300000000       -5.19598500000000        1.97859700000000
H           32.65064700000000       -8.81855300000000        2.28939000000000
H           32.23318400000000       -9.74772000000000       -1.03313700000000
H           31.96472500000000       -7.27949200000000       -3.46886500000000
H           32.12983600000000       -5.13959300000000       -2.28726800000000
H           29.68220900000000       -4.52211200000000        0.14164900000000
H           28.00009100000000       -2.56911300000000        0.24233600000000
Fe          60.89923399999999        0.00793900000000       -0.01830300000000
C           64.23237300000000       -0.15416100000000        0.07030500000000
C           63.56556100000000       -1.30122600000000       -0.08209200000000
C           64.21393200000000       -2.59829400000000       -0.23127400000000
C           63.27029200000000       -3.51352000000000       -0.34369600000000
C           61.96514500000000       -2.84258600000000       -0.26923700000000
N           62.14512700000000       -1.43605700000000       -0.10371200000000
C           60.77119500000000       -3.46684100000000       -0.31034200000000
C           60.73367100000000       -4.93686700000000       -0.47048000000000
C           60.94301000000000       -5.51299300000000       -1.73087800000000
C           60.92135600000000       -6.90265400000000       -1.88645500000000
O           61.13563300000000       -7.44361100000000       -3.15432800000000
C           60.68829200000000       -7.72986200000000       -0.77288700000000
O           60.67266300000000       -9.11594100000000       -0.93510400000000
C           60.47451700000000       -7.15358100000000        0.49268000000000
O           60.24167099999999       -7.96706000000000        1.60025400000000
C           60.49699300000000       -5.75986300000000        0.63819600000000
C           59.47298799999999       -2.75175000000000       -0.19015900000000
C           58.17371400000000       -3.43185700000000       -0.13547000000000
C           57.23938800000000       -2.50900200000000       -0.04493900000000
N           59.33836400000000       -1.46087300000000       -0.14413300000000
C           57.93249299999999       -1.22613400000000       -0.05110000000000
C           57.33728400000000       -0.02087800000000       -0.02270300000000
C           58.09024300000000        1.25691700000000       -0.05825100000000
C           57.52495400000000        2.44595600000000       -0.22971100000000
C           58.57245000000000        3.44200000000000       -0.14647500000000
C           59.71414000000000        2.79936800000000        0.06812500000000
N           59.50038899999999        1.38600200000000        0.13464400000000
C           61.02325000000000        3.47518300000000        0.26446000000000
C           61.04206599999999        4.94654300000000        0.41358700000000
C           60.89543599999999        5.52465100000000        1.68068700000000
C           60.91672000000000        6.91510500000000        1.83039600000000
O           60.77499200000000        7.45919500000000        3.10702500000000
C           61.08004699999999        7.74021200000000        0.70266600000000
O           61.09687800000000        9.12676800000000        0.85982200000000
C           61.22195100000000        7.16114600000000       -0.57172600000000
O           61.37939100000000        7.97300300000000       -1.69414800000000
C           61.20377899999999        5.76659500000000       -0.71067300000000
C           62.18592399999999        2.80045600000000        0.31037300000000
C           63.50985400000000        3.39125100000000        0.49725700000000
C           64.36886500000000        2.39318000000000        0.43546600000000
C           63.60275399999999        1.16762400000000        0.21514200000000
N           62.32802100000000        1.39237700000000        0.13968600000000
H           65.31525700000000       -0.18952500000000        0.09105000000000
H           65.27855900000000       -2.79382500000000       -0.24440800000000
H           63.45397199999999       -4.57403800000000       -0.45808100000000
H           61.12674200000000       -4.88105300000000       -2.59148700000000
H           61.13065900000000       -8.44252700000000       -3.32160400000000
H           60.52228999999999       -9.74826500000000       -0.15876600000000
H           60.08535800000000       -7.57673600000000        2.52235900000000
H           60.33426699999999       -5.31693800000000        1.61334300000000
H           57.99014800000000       -4.49776100000000       -0.16657300000000
H           56.17560000000000       -2.69947100000000        0.00857200000000
H           56.47530199999999        2.65029800000000       -0.38955300000000
H           58.43755700000000        4.51297100000000       -0.22855700000000
H           60.76826100000000        4.89404100000000        2.55227600000000
H           60.79330800000000        8.45803700000000        3.27166700000000
H           61.21077100000000        9.75781000000000        0.07586900000000
H           61.47923000000000        7.58156700000000       -2.62392500000000
H           61.31411800000000        5.32152900000000       -1.69249100000000
H           63.76174600000000        4.43272000000000        0.65078500000000
H           65.44386299999999        2.48089500000000        0.52945900000000
C           39.38611500000000       -0.00844100000000       -0.02026100000000
C           38.13384400000000       -0.02762200000000       -0.02461000000000
C           40.69978300000000       -0.00920700000000       -0.01832900000000
C           42.20291700000000       -0.02762200000000       -0.02461000000000
C           52.58331400000000       -0.00844100000000       -0.02026100000000
C           51.33104400000000       -0.02762200000000       -0.02461000000000
C           53.89698200000000       -0.00920700000000       -0.01832900000000
C           55.40011599999999       -0.02762200000000       -0.02461000000000
Fe          46.68222100000000       -0.03881100000000       -0.04735000000000
C           43.27259000000000        0.04606200000000        0.04937700000000
C           43.92905700000000        1.21469900000000        0.16894800000000
C           43.28746700000000        2.51375600000000        0.38137900000000
C           44.22552700000000        3.44016800000000        0.40362900000000
C           45.52433900000000        2.78867600000000        0.20633000000000
N           45.34640799999999        1.37706700000000        0.06491100000000
C           46.70929300000000        3.43289900000000        0.15429400000000
C           46.73901300000000        4.90856200000000        0.25756600000000
C           47.20151000000000        5.52151900000000        1.43099600000000
C           47.24414399999999        6.91867300000000        1.52978600000000
O           47.69708300000000        7.52925300000000        2.69971100000000
C           46.82914000000000        7.70950900000000        0.44894300000000
O           46.88165999999999        9.09890200000000        0.56470200000000
C           46.36675499999999        7.09851700000000       -0.73215200000000
O           45.95529300000000        7.88155200000000       -1.80958400000000
C           46.32264400000000        5.70041600000000       -0.82246500000000
C           48.01035300000000        2.73446000000000        0.00105200000000
C           49.28373200000000        3.42617200000000       -0.23401200000000
C           50.23750799999999        2.51735300000000       -0.26349200000000
N           48.17647299999999        1.45259900000000        0.10694100000000
C           49.57886300000000        1.23505700000000       -0.05159200000000
C           50.19391000000000        0.04606200000000        0.04937700000000
C           49.44496100000000       -1.21277800000000        0.24776600000000
C           49.98314100000000       -2.34434900000000        0.68413800000000
C           48.95068000000000       -3.36130500000000        0.62501700000000
C           47.85243600000000       -2.78152100000000        0.15431900000000
N           48.07411900000000       -1.39627500000000       -0.10529300000000
C           46.59373900000000       -3.49994400000000       -0.15789900000000
C           46.65566600000000       -4.96481800000000       -0.38083600000000
C           47.39044100000000       -5.47888000000000       -1.45618300000000
C           47.46181500000000       -6.85754800000000       -1.67158000000000
O           48.19305500000000       -7.32770100000000       -2.76306000000000
C           46.80310599999999       -7.74626700000000       -0.79973200000000
O           46.89736600000000       -9.11731600000000       -1.05306500000000
C           46.07092500000000       -7.22980100000000        0.29792800000000
O           45.39918600000000       -8.04709400000000        1.21053300000000
C           46.00683800000000       -5.84587200000000        0.49537500000000
C           45.41742599999999       -2.85147500000000       -0.26150300000000
C           44.13600399999999       -3.45337900000000       -0.61520400000000
C           43.24674500000000       -2.48306100000000       -0.55721400000000
C           43.94881600000000       -1.25381200000000       -0.17225100000000
N           45.21792800000000       -1.46180100000000        0.00019300000000
H           42.23106600000000        2.71242200000000        0.50629200000000
H           44.04066600000000        4.49611100000000        0.55155700000000
H           47.52675200000000        4.91387700000000        2.26735300000000
H           47.98784000000000        6.98479900000000        3.50791400000000
H           46.58905000000000        9.71389200000000       -0.18848900000000
H           45.59545300000000        7.46733200000000       -2.66190900000000
H           45.96892300000000        5.23045200000000       -1.73384400000000
H           49.43522900000000        4.49039300000000       -0.35963000000000
H           51.29090399999999        2.71535900000000       -0.41311000000000
H           51.00819799999999       -2.49574100000000        0.99676300000000
H           49.06797100000000       -4.40615400000000        0.88194000000000
H           47.90374800000000       -4.80631400000000       -2.13408200000000
H           48.27601200000000       -8.31533900000000       -2.97376000000000
H           46.44730700000000       -9.83081600000000       -0.49596300000000
H           45.39026900000000       -9.05557000000000        1.16784500000000
H           45.45056400000000       -5.45507000000000        1.33956800000000
H           43.92879400000000       -4.48118400000000       -0.88195300000000
H           42.19184400000000       -2.59726800000000       -0.77067700000000
193
 energy: -381.354870898088 gnorm: 0.520512821377 xtb: 6.5.1 (b24c23e)
Fe          32.55486250712755       -0.04404538796584       -0.01957408678050
C           29.21239669699251        0.08685755919331        0.08507209094892
C           29.88458999494788        1.25823613345451        0.06321216768707
C           29.22973182598770        2.55723654444937        0.06227639956711
C           30.18261374544048        3.48680539881731        0.05417617992523
C           31.47852493682315        2.80273941230230        0.05156185684036
N           31.28887456858968        1.40051688331679        0.05638342406270
C           32.68611019633327        3.43177003090549        0.08201025059766
C           32.71287649720035        4.91865983138512        0.08862039151948
C           32.50073431306708        5.63559164768604       -1.09594449300225
C           32.52274243557678        7.03819226954395       -1.09342701157986
O           32.30890525346516        7.70821732708445       -2.28937583383832
C           32.75730374623652        7.73042298028546        0.11458183532020
O           32.77097033183972        9.12060886391735        0.10013575301044
C           32.97061821940965        7.00530757408497        1.30405757725160
O           33.20206149110598        7.69192647988083        2.48982487756670
C           32.94750033114695        5.60785933191599        1.28289452979825
C           33.96430355666841        2.72222826287753        0.12053124032611
C           35.25935727301847        3.38873541555157        0.25132507042230
C           36.20479636020693        2.44809994483691        0.23672026809098
N           34.11354894576770        1.41547805722636        0.02218888660552
C           35.52132228753146        1.17602720424149        0.08545837118926
C           36.13062071449967       -0.03195642554331       -0.02544156968959
C           35.35423589501187       -1.27125756532921       -0.19652009097456
C           35.92117640842032       -2.46523600835274       -0.51024076780353
C           34.88785424254018       -3.44858672988619       -0.53965023435632
C           33.71872460909080       -2.82143920162578       -0.24625052259166
N           33.94515150483718       -1.43452864555626       -0.03191509439887
C           32.43233654233045       -3.51919901478232       -0.13351810843883
C           32.40660233273020       -5.00871558119828       -0.15191003116464
C           32.54855560301946       -5.72964950123239        1.03986367632046
C           32.52666542318322       -7.13251830185867        1.03124537572205
O           32.66839923220173       -7.80658761935497        2.23548037598203
C           32.36283428668799       -7.82102621244475       -0.19065700807608
O           32.34717853182706       -9.21120654338727       -0.18119015860122
C           32.22125301849577       -7.09198176732055       -1.38842548843901
O           32.06452365878257       -7.77535084766850       -2.58863889138683
C           32.24062406126451       -5.69406391320757       -1.36064851920238
C           31.25831982707943       -2.85841412072058       -0.01138874459286
C           29.94121103373262       -3.46959681211196        0.10654027936452
C           29.06840292455014       -2.46145246026687        0.15886782328297
C           29.82736097422470       -1.21987499634571        0.07913395803417
N           31.11952322611502       -1.44683979443163       -0.02001507216856
H           28.12911701400398        0.13014218477563        0.10958644499601
H           28.16577806261480        2.75376060416087        0.07126986918523
H           29.99695917176667        4.55237920458805        0.06053310863324
H           32.31764198062775        5.10150306350126       -2.02295218530810
H           32.31558197049850        8.70355404598504       -2.33238974619475
H           32.92017675133042        9.63955976639776        0.93658390100363
H           33.35470849971972        7.19819387847359        3.34156882297811
H           33.10955497016188        5.05616880580673        2.20238174953096
H           35.44802799055748        4.44630201371165        0.34174808718263
H           37.26778478257519        2.63060312485466        0.31154231859321
H           36.96953200998152       -2.63651698356070       -0.69069786809110
H           35.00938939885237       -4.50190271907779       -0.74200936792167
H           32.67562397078159       -5.19840776438916        1.97757736972969
H           32.64941408005832       -8.80168762760131        2.27592198287967
H           32.23447308860148       -9.72797504490120       -1.02490110695081
H           31.96730121277839       -7.27990350150926       -3.44773148534660
H           32.12998929190518       -5.14005575994825       -2.28644714974578
H           29.68875528213484       -4.52134890234804        0.14121249080195
H           27.99810926230937       -2.56424759466878        0.24251340177108
Fe          60.88911781293365        0.00181902106044       -0.01690428921928
C           64.23153497603251       -0.14013042871519        0.07216458374022
C           63.55935779834488       -1.30152567681898       -0.08234195727999
C           64.21425165223569       -2.59203139505317       -0.23049031838073
C           63.26135671592395       -3.51467283724720       -0.34389213182754
C           61.96551108429993       -2.83456675787053       -0.26895778080080
N           62.15520317864981       -1.44230072810316       -0.10526973350614
C           60.75758901942848       -3.46306250307728       -0.31000231205571
C           60.73105693023209       -4.94118290816196       -0.47196815367000
C           60.94322422201417       -5.51923837122474       -1.73015940541158
C           60.92120863935180       -6.91309086358171       -1.88665396121375
O           61.13506564973017       -7.44324450659053       -3.15079998999360
C           60.68664665586770       -7.73777588558973       -0.76487966697290
O           60.67298736359706       -9.11739373079713       -0.93679875860959
C           60.47333836712068       -7.15216074580651        0.49910631210797
O           60.24188678029149       -7.96878057702698        1.59943926578340
C           60.49645834848155       -5.76132066263801        0.63649011518776
C           59.47974152528435       -2.76255681752204       -0.19133441423817
C           58.18469513642125       -3.43965421837856       -0.13691149386476
C           57.23919052321370       -2.50351310497021       -0.04479385673268
N           59.32974140549389       -1.45254385734995       -0.14081722681224
C           57.92209673458033       -1.22269503539702       -0.05090193231394
C           57.30667474393376       -0.00954304882092       -0.02417568956059
C           58.08884953359559        1.24116063836386       -0.05367542897621
C           57.52269904406591        2.46323030006050       -0.23006186748455
C           58.55599194254462        3.44329770447511       -0.14779736427053
C           59.72519144117529        2.78681158339659        0.07261695259366
N           59.49821038839266        1.38452223859985        0.12832543899557
C           61.01151574196980        3.46741705649437        0.26371024947073
C           61.03733931363786        4.94945582115306        0.41426454731085
C           60.89539910122005        5.53066260195450        1.68008426208552
C           60.91727501766358        6.92549458560026        1.83054354152411
O           60.77559706375774        7.45867503857867        3.10337704606460
C           61.08110772755849        7.74808356737732        0.69453706417529
O           61.09682643433167        9.12812025045363        0.86150448744542
C           61.22268992497684        7.15947329696690       -0.57815888870478
O           61.37946293418680        7.97442378279333       -1.69314432876466
C           61.20333627939736        5.76739337772532       -0.70900519177962
C           62.18563666880066        2.79704035008834        0.31016341688532
C           63.50272067088495        3.39095498769580        0.49659974179567
C           64.37554831956007        2.38337321011200        0.43432374332197
C           63.61658633172819        1.15885940146671        0.21437503927233
N           62.32437450212310        1.39558194163963        0.14161174840957
H           65.31482977333377       -0.18591739355864        0.09161754573642
H           65.27818816009328       -2.78829193481081       -0.24382847199165
H           63.44698925252464       -4.57409984316300       -0.45836087971475
H           61.12630965044070       -4.88352893553208       -2.59066097607838
H           61.12836314523111       -8.42728361817206       -3.30639030084887
H           60.52378125292182       -9.72778283603987       -0.16456457223888
H           60.08924971452974       -7.57473891499386        2.50163571522903
H           60.33439812249250       -5.31740919066949        1.61258363028369
H           57.99593573802785       -4.50059079133578       -0.16694154908261
H           56.17612052329284       -2.69309296955005        0.00885184074542
H           56.47434403284944        2.65367548229414       -0.38992377403636
H           58.43455544769884        4.51277176557654       -0.22946216761332
H           60.76832773480731        4.89656181190164        2.55154064579462
H           60.79450771238376        8.44280863102277        3.25637221380125
H           61.20944505830320        9.73727087636304        0.08182426188574
H           61.47663326658904        7.57959351721098       -2.60288541641293
H           61.31396349257454        5.32189290462693       -1.69162809825805
H           63.75519060674272        4.43200184702413        0.65026254076717
H           65.44584134796290        2.47603594765007        0.52908184704314
C           39.36928495079887       -0.01007922941284       -0.02065720901544
C           38.10297668967764       -0.02946266776055       -0.02490288400425
C           40.70834822954794       -0.00873765960593       -0.01797952207286
C           42.03857034873815       -0.03747378162356       -0.02848824756019
C           52.64779765816235       -0.01151866725495       -0.02157653436082
C           51.41445670890289       -0.03914033639187       -0.02709741215307
C           53.98112024757704       -0.00926674767308       -0.01906648991622
C           55.37306235315118       -0.02404323812307       -0.02425194459450
Fe          46.68425018025933       -0.03243138053694       -0.04282605424982
C           43.32321674756631        0.03726396865045        0.04706351444546
C           43.96343120874351        1.23499319716111        0.17279377475828
C           43.28956327164384        2.50463470128388        0.38065198872578
C           44.23650952026792        3.44348108808566        0.40313005816831
C           45.52376777165065        2.78507790110582        0.20593015651755
N           45.34221189023977        1.38736519707025        0.06892379738741
C           46.72155979066775        3.43171627301439        0.15256896424579
C           46.74192189875475        4.91221060675347        0.25706515011879
C           47.20181680982805        5.52462892046978        1.42876438739607
C           47.24554820360703        6.91988154684227        1.53431870969090
O           47.69612137233645        7.52787202805083        2.69786495781443
C           46.82736557351311        7.71833260888462        0.44455266069449
O           46.88122771893674        9.09900227027823        0.56377882699468
C           46.36467833650909        7.09696014017647       -0.73672036437285
O           45.95570735870813        7.88274801883577       -1.80780181648669
C           46.32257917824050        5.70176824969178       -0.82044334592102
C           48.00195901933079        2.75205741862111        0.00189522635622
C           49.27045318754657        3.43649525802857       -0.23180335027279
C           50.23351936523738        2.50999136365860       -0.26233005859577
N           48.17501879206258        1.45074760035139        0.10076900932458
C           49.55153098925839        1.25168124008282       -0.05272257113447
C           50.13616868918579        0.03755254454593        0.05215991404446
C           49.41710879410393       -1.21243043154634        0.24347559445286
C           49.98160628345290       -2.36098367216700        0.68642288510710
C           48.96567047055187       -3.36458245437522        0.62709939073072
C           47.84186166720219       -2.77490230504531        0.14547204310429
N           48.06622465443751       -1.39949550700060       -0.09661824988331
C           46.60386387884541       -3.49627183144633       -0.15745791401950
C           46.66011030944862       -4.96813952675234       -0.37909634092540
C           47.39152721963256       -5.48461195913173       -1.45589234378344
C           47.46218685360446       -6.86750750241547       -1.67369080430858
O           48.19105346813784       -7.32753353945666       -2.76030749892409
C           46.79973531159786       -7.75330497319328       -0.79593523590801
O           46.89811114838099       -9.11934318147295       -1.05419792599826
C           46.07091803745919       -7.23674939665194        0.29753191236929
O           45.40040796632390       -8.04673597906974        1.20858546257213
C           46.00647620669657       -5.84991989041317        0.49358555481800
C           45.41808964458018       -2.85294051702573       -0.26166858750750
C           44.14355913324593       -3.45436292913917       -0.61387860613215
C           43.24122665753294       -2.47275074279343       -0.55512673172306
C           43.95658428888609       -1.26059907435196       -0.17412673446655
N           45.23050127049599       -1.47019563402130       -0.00664131438029
H           42.23177286879592        2.70356937974568        0.50510413763553
H           44.04724059064345        4.49681279017164        0.55091706982574
H           47.52630328058256        4.91504111815422        2.26612765624480
H           47.98018746594861        6.98637772373797        3.48701139558688
H           46.59141278417580        9.69313116629548       -0.18238954785086
H           45.60365467826971        7.46593842355325       -2.64196864181054
H           45.96947584706287        5.23103531868575       -1.73260987876851
H           49.42982959160443        4.49385027229624       -0.35912903088978
H           51.28869518806210        2.70741845867477       -0.41229432008153
H           51.00713480759380       -2.49751839193107        0.99768068628436
H           49.07121569621168       -4.40648835072711        0.88357431805419
H           47.90334559216851       -4.80872745999432       -2.13364549598720
H           48.26743767924997       -8.30083648043800       -2.96004152391737
H           46.45106006688307       -9.81079300174598       -0.49929761776790