      -----------------------------------------------------------      
     |                   =====================                   |     
     |                           x T B                           |     
     |                   =====================                   |     
     |                         S. Grimme                         |     
     |          Mulliken Center for Theoretical Chemistry        |     
     |                    University of Bonn                     |     
      -----------------------------------------------------------      

   * xtb version 6.5.1 (b24c23e) compiled by 'conda@728c89f4b128' on 2022-07-12

   xtb is free software: you can redistribute it and/or modify it under
   the terms of the GNU Lesser General Public License as published by
   the Free Software Foundation, either version 3 of the License, or
   (at your option) any later version.
   
   xtb is distributed in the hope that it will be useful,
   but WITHOUT ANY WARRANTY; without even the implied warranty of
   MERCHANTABILITY or FITNESS FOR A PARTICULAR PURPOSE.  See the
   GNU Lesser General Public License for more details.
   
   Cite this work as:
   * C. Bannwarth, E. Caldeweyher, S. Ehlert, A. Hansen, P. Pracht,
     J. Seibert, S. Spicher, S. Grimme, WIREs Comput. Mol. Sci., 2020, 11,
     e01493. DOI: 10.1002/wcms.1493
   
   for GFN2-xTB:
   * C. Bannwarth, S. Ehlert and S. Grimme., J. Chem. Theory Comput., 2019,
     15, 1652-1671. DOI: 10.1021/acs.jctc.8b01176
   for GFN1-xTB:
   * S. Grimme, C. Bannwarth, P. Shushkov, J. Chem. Theory Comput., 2017,
     13, 1989-2009. DOI: 10.1021/acs.jctc.7b00118
   for GFN0-xTB:
   * P. Pracht, E. Caldeweyher, S. Ehlert, S. Grimme, ChemRxiv, 2019, preprint.
     DOI: 10.26434/chemrxiv.8326202.v1
   for GFN-FF:
   * S. Spicher and S. Grimme, Angew. Chem. Int. Ed., 2020, 59, 15665-15673.
     DOI: 10.1002/anie.202004239
   
   for ALPB and GBSA implicit solvation:
   * S. Ehlert, M. Stahn, S. Spicher, S. Grimme, J. Chem. Theory Comput.,
     2021, 17, 4250-4261. DOI: 10.1021/acs.jctc.1c00471
   
   for DFT-D4:
   * E. Caldeweyher, C. Bannwarth and S. Grimme, J. Chem. Phys., 2017,
     147, 034112. DOI: 10.1063/1.4993215
   * E. Caldeweyher, S. Ehlert, A. Hansen, H. Neugebauer, S. Spicher,
     C. Bannwarth and S. Grimme, J. Chem. Phys., 2019, 150, 154122.
     DOI: 10.1063/1.5090222
   * E. Caldeweyher, J.-M. Mewes, S. Ehlert and S. Grimme, Phys. Chem. Chem. Phys.
     2020, 22, 8499-8512. DOI: 10.1039/D0CP00502A
   
   for sTDA-xTB:
   * S. Grimme and C. Bannwarth, J. Chem. Phys., 2016, 145, 054103.
     DOI: 10.1063/1.4959605
   
   in the mass-spec context:
   * V. Asgeirsson, C. Bauer and S. Grimme, Chem. Sci., 2017, 8, 4879.
     DOI: 10.1039/c7sc00601b
   * J. Koopman and S. Grimme, ACS Omega 2019, 4, 12, 15120-15133.
     DOI: 10.1021/acsomega.9b02011
   
   for metadynamics refer to:
   * S. Grimme, J. Chem. Theory Comput., 2019, 155, 2847-2862
     DOI: 10.1021/acs.jctc.9b00143
   
   for SPH calculations refer to:
   * S. Spicher and S. Grimme, J. Chem. Theory Comput., 2021, 17, 1701-1714
     DOI: 10.1021/acs.jctc.0c01306
   
   with help from (in alphabetical order)
   P. Atkinson, C. Bannwarth, F. Bohle, G. Brandenburg, E. Caldeweyher
   M. Checinski, S. Dohm, S. Ehlert, S. Ehrlich, I. Gerasimov, C. Hölzer
   A. Katbashev, J. Koopman, C. Lavigne, S. Lehtola, F. März, M. Müller,
   F. Musil, H. Neugebauer, J. Pisarek, C. Plett, P. Pracht, F. Pultar,
   J. Seibert, P. Shushkov, S. Spicher, M. Stahn, M. Steiner, T. Strunk,
   J. Stückrath, T. Rose, and J. Unsleber
   
 * started run on 2022/07/31 at 16:52:43.742     

           -------------------------------------------------
          |                Calculation Setup                |
           -------------------------------------------------

          program call               : xtb BSA_C6_2.xyz --gfn 1 --opt -T 48
          hostname                   : cx3-15-11.cx3.hpc.ic.ac.uk
          coordinate file            : BSA_C6_2.xyz
          omp threads                :                     1

   ID    Z sym.   atoms
    1    6 C      1-5, 7-11, 16-20, 22-27, 29-33, 38-43, 66-70, 72-76, 81-85,
                  87-92, 94-98, 103-108, 131-136
    2    7 N      6, 21, 28, 44, 71, 86, 93, 109
    3   16 S      12, 34, 77, 99
    4    8 O      13-15, 35-37, 78-80, 100-102
    5    1 H      45-65, 110-130
########################################################################
[WARNING] Please study the warnings concerning your input carefully
-1- prog_main_parseArguments: Unknown option '-T' provided
########################################################################

           -------------------------------------------------
          |                 G F N 1 - x T B                 |
           -------------------------------------------------

        Reference                      10.1021/acs.jctc.7b00118
      * Hamiltonian:
        H0-scaling (s, p, d)           1.850000    2.250000    2.000000
        zeta-weighting                 0.000000
      * Dispersion:
        s8                             2.400000
        a1                             0.630000
        a2                             5.000000
        s9                             0.000000
      * Repulsion:
        kExp                           1.500000
        rExp                           1.000000
      * Coulomb:
        alpha                          2.000000
        third order                    atomic
        anisotropic                    false
      * Halogen bond correction:
        rad-scale                      1.300000
        damping                        0.440000


          ...................................................
          :                      SETUP                      :
          :.................................................:
          :  # basis functions                 484          :
          :  # atomic orbitals                 480          :
          :  # shells                          276          :
          :  # electrons                       458          :
          :  # halogen bonds                     0          :
          :  max. iterations                   250          :
          :  Hamiltonian                  GFN1-xTB          :
          :  restarted?                      false          :
          :  GBSA solvation                  false          :
          :  PC potential                    false          :
          :  electronic temp.          300.0000000     K    :
          :  accuracy                    1.0000000          :
          :  -> integral cutoff          0.2500000E+02      :
          :  -> integral neglect         0.1000000E-07      :
          :  -> SCF convergence          0.1000000E-05 Eh   :
          :  -> wf. convergence          0.2000000E-04 e    :
          :  Broyden damping             0.4000000          :
          ...................................................

 iter      E             dE          RMSdq      gap      omega  full diag
   1   -269.5033857 -0.269503E+03  0.101E+01    0.49       0.0  T
   2   -269.3970645  0.106321E+00  0.624E+00    0.54       1.0  T
   3   -263.9207017  0.547636E+01  0.874E+00    0.08       1.0  T
   4   -269.0529418 -0.513224E+01  0.152E+00    0.68       1.0  T
   5   -269.7955071 -0.742565E+00  0.786E-01    0.56       1.0  T
   6   -269.9158147 -0.120308E+00  0.579E-01    0.55       1.0  T
   7   -269.9478239 -0.320092E-01  0.485E-01    0.56       1.0  T
   8   -269.9862148 -0.383909E-01  0.377E-01    0.53       1.0  T
   9   -270.0139400 -0.277252E-01  0.227E-01    0.53       1.0  T
  10   -270.0264095 -0.124695E-01  0.102E-01    0.53       1.0  T
  11   -270.0290342 -0.262473E-02  0.490E-02    0.52       1.0  T
  12   -270.0297464 -0.712263E-03  0.210E-02    0.52       1.0  T
  13   -270.0298621 -0.115696E-03  0.112E-02    0.52       1.0  T
  14   -270.0298988 -0.366212E-04  0.410E-03    0.52       2.1  T
  15   -270.0299019 -0.315685E-05  0.202E-03    0.52       4.2  T
  16   -270.0299026 -0.722623E-06  0.151E-03    0.52       5.7  T
  17   -270.0299034 -0.712523E-06  0.383E-04    0.52      22.4  T
  18   -270.0299034 -0.404837E-07  0.127E-04    0.52      67.5  T
  19   -270.0299034 -0.344187E-08  0.586E-05    0.52     146.4  T

   *** convergence criteria satisfied after 19 iterations ***

         #    Occupation            Energy/Eh            Energy/eV
      -------------------------------------------------------------
         1        2.0000           -1.0387615             -28.2661
       ...           ...                  ...                  ...
       223        2.0000           -0.4334316             -11.7943
       224        2.0000           -0.4297952             -11.6953
       225        2.0000           -0.4297747             -11.6948
       226        2.0000           -0.4266462             -11.6096
       227        2.0000           -0.4263954             -11.6028
       228        2.0000           -0.4007033             -10.9037
       229        1.9999           -0.3953869             -10.7590 (HOMO)
       230        0.0001           -0.3762744             -10.2389 (LUMO)
       231        0.0000           -0.3718814             -10.1194
       232                         -0.3391968              -9.2300
       233                         -0.3340780              -9.0907
       234                         -0.3223146              -8.7706
       ...                                ...                  ...
       480                          1.5019088              40.8690
      -------------------------------------------------------------
                  HL-Gap            0.0191125 Eh            0.5201 eV
             Fermi-level           -0.3858335 Eh          -10.4991 eV

 SCC (total)                   0 d,  0 h,  0 min,  1.272 sec
 SCC setup                      ...        0 min,  0.005 sec (  0.387%)
 Dispersion                     ...        0 min,  0.003 sec (  0.257%)
 classical contributions        ...        0 min,  0.001 sec (  0.103%)
 integral evaluation            ...        0 min,  0.111 sec (  8.706%)
 iterations                     ...        0 min,  0.871 sec ( 68.502%)
 molecular gradient             ...        0 min,  0.270 sec ( 21.254%)
 printout                       ...        0 min,  0.010 sec (  0.789%)

         :::::::::::::::::::::::::::::::::::::::::::::::::::::
         ::                     SUMMARY                     ::
         :::::::::::::::::::::::::::::::::::::::::::::::::::::
         :: total energy            -266.512164845345 Eh    ::
         :: gradient norm              0.395586325026 Eh/a0 ::
         :: HOMO-LUMO gap              0.520076880434 eV    ::
         ::.................................................::
         :: SCC energy              -270.029903402229 Eh    ::
         :: -> electrostatic           0.500090527956 Eh    ::
         :: repulsion energy           3.631674708079 Eh    ::
         :: dispersion energy         -0.113936151195 Eh    ::
         :: halogen bond corr.         0.000000000000 Eh    ::
         :: add. restraining           0.000000000000 Eh    ::
         :: total charge              -0.000000000002 e     ::
         :::::::::::::::::::::::::::::::::::::::::::::::::::::

      ----------------------------------------------------------- 
     |                   =====================                   |
     |                        A N C O P T                        |
     |                   =====================                   |
     |               Approximate Normal Coordinate               |
     |                Rational Function Optimizer                |
      ----------------------------------------------------------- 

          ...................................................
          :                      SETUP                      :
          :.................................................:
          :   optimization level            normal          :
          :   max. optcycles                   408          :
          :   ANC micro-cycles                  20          :
          :   degrees of freedom               402          :
          :.................................................:
          :   RF solver                   davidson          :
          :   write xtbopt.log                true          :
          :   linear?                        false          :
          :   energy convergence         0.5000000E-05 Eh   :
          :   grad. convergence          0.1000000E-02 Eh/α :
          :   maximium RF displ.         1.0000000          :
          :   Hlow (freq-cutoff)         0.1000000E-01      :
          :   Hmax (freq-cutoff)         5.0000000          :
          :   S6 in model hess.         20.0000000          :
          ...................................................

generating ANC from model Hessian ...
Using Lindh-Hessian (1995)
 Shifting diagonal of input Hessian by    1.0004002316084785E-002
 Lowest  eigenvalues of input Hessian
    0.010000    0.010003    0.000000    0.000000    0.000000    0.000000
    0.000000    0.000000    0.010009    0.010017    0.010044    0.010073
    0.010090    0.010113    0.010160    0.010278    0.010298    0.010359
 Highest eigenvalues
    2.601633    2.822574    3.503279    3.503279    3.503811    3.503812


........................................................................
.............................. CYCLE    1 ..............................
........................................................................
   1   -270.0299034 -0.270030E+03  0.141E-05    0.52       0.0  T
   2   -270.0299034  0.578098E-10  0.163E-05    0.52     524.7  T
   3   -270.0299034 -0.111299E-09  0.434E-06    0.52    1973.7  T
     SCC iter.                  ...        0 min,  0.141 sec
     gradient                   ...        0 min,  0.269 sec
 * total energy  :  -266.5121648 Eh     change       -0.1042167E-08 Eh
   gradient norm :     0.3955863 Eh/α   predicted     0.0000000E+00 (-100.00%)
   displ. norm   :     0.4471802 α      lambda       -0.1213524E+00
   maximum displ.:     0.1171637 α      in ANC's #225, #37, #308, ...

........................................................................
.............................. CYCLE    2 ..............................
........................................................................
   1   -270.0693023 -0.270069E+03  0.739E-02    0.69       0.0  T
   2   -270.0702363 -0.933997E-03  0.487E-02    0.66       1.0  T
   3   -270.0704749 -0.238574E-03  0.240E-02    0.67       1.0  T
   4   -270.0701475  0.327364E-03  0.331E-02    0.67       1.0  T
   5   -270.0705163 -0.368818E-03  0.788E-03    0.67       1.1  T
   6   -270.0705287 -0.123475E-04  0.275E-03    0.67       3.1  T
   7   -270.0705314 -0.268850E-05  0.102E-03    0.67       8.4  T
   8   -270.0705317 -0.375293E-06  0.296E-04    0.67      29.0  T
   9   -270.0705318 -0.124809E-07  0.144E-04    0.67      59.6  T
  10   -270.0705318 -0.578967E-08  0.483E-05    0.67     177.7  T
     SCC iter.                  ...        0 min,  0.463 sec
     gradient                   ...        0 min,  0.270 sec
 * total energy  :  -266.6103021 Eh     change       -0.9813726E-01 Eh
   gradient norm :     0.2320748 Eh/α   predicted    -0.7287189E-01 ( -25.74%)
   displ. norm   :     0.5476218 α      lambda       -0.9296802E-01
   maximum displ.:     0.1679277 α      in ANC's #37, #80, #225, ...

........................................................................
.............................. CYCLE    3 ..............................
........................................................................
   1   -270.1319901 -0.270132E+03  0.958E-02    0.96       0.0  T
   2   -270.1336354 -0.164537E-02  0.591E-02    0.93       1.0  T
   3   -270.1341300 -0.494573E-03  0.248E-02    0.94       1.0  T
   4   -270.1339950  0.134963E-03  0.220E-02    0.93       1.0  T
   5   -270.1341476 -0.152551E-03  0.766E-03    0.93       1.1  T
   6   -270.1341634 -0.158564E-04  0.138E-03    0.93       6.2  T
   7   -270.1341639 -0.471205E-06  0.664E-04    0.93      12.9  T
   8   -270.1341641 -0.160877E-06  0.302E-04    0.93      28.4  T
   9   -270.1341641 -0.231257E-07  0.113E-04    0.93      76.2  T
  10   -270.1341641 -0.295239E-08  0.396E-05    0.93     216.6  T
     SCC iter.                  ...        0 min,  0.463 sec
     gradient                   ...        0 min,  0.270 sec
 * total energy  :  -266.6643476 Eh     change       -0.5404547E-01 Eh
   gradient norm :     0.0588404 Eh/α   predicted    -0.6042409E-01 (  11.80%)
   displ. norm   :     0.6243593 α      lambda       -0.1952950E-01
   maximum displ.:     0.4155221 α      in ANC's #37, #80, #30, ...

........................................................................
.............................. CYCLE    4 ..............................
........................................................................
   1   -270.1950282 -0.270195E+03  0.213E-02    0.99       0.0  T
   2   -270.1950943 -0.661674E-04  0.111E-02    0.99       1.0  T
   3   -270.1951085 -0.141729E-04  0.629E-03    0.99       1.4  T
   4   -270.1951100 -0.143954E-05  0.438E-03    0.99       2.0  T
   5   -270.1951150 -0.501701E-05  0.186E-03    0.99       4.6  T
   6   -270.1951160 -0.100530E-05  0.398E-04    0.99      21.5  T
   7   -270.1951160 -0.333155E-07  0.206E-04    0.99      41.6  T
   8   -270.1951160 -0.107018E-07  0.983E-05    0.99      87.2  T
   9   -270.1951160 -0.245484E-08  0.384E-05    0.99     223.2  T
     SCC iter.                  ...        0 min,  0.417 sec
     gradient                   ...        0 min,  0.271 sec
 * total energy  :  -266.6805674 Eh     change       -0.1621985E-01 Eh
   gradient norm :     0.0383440 Eh/α   predicted    -0.1357132E-01 ( -16.33%)
   displ. norm   :     0.7639228 α      lambda       -0.1665236E-01
   maximum displ.:     0.5455897 α      in ANC's #37, #30, #80, ...

........................................................................
.............................. CYCLE    5 ..............................
........................................................................
   1   -270.2530291 -0.270253E+03  0.251E-02    1.02       0.0  T
   2   -270.2531072 -0.781662E-04  0.103E-02    1.02       1.0  T
   3   -270.2531139 -0.668685E-05  0.670E-03    1.02       1.3  T
   4   -270.2531175 -0.360239E-05  0.428E-03    1.02       2.0  T
   5   -270.2531205 -0.301940E-05  0.219E-03    1.02       3.9  T
   6   -270.2531219 -0.139777E-05  0.593E-04    1.02      14.5  T
   7   -270.2531220 -0.103262E-06  0.214E-04    1.02      40.1  T
   8   -270.2531221 -0.122998E-07  0.109E-04    1.02      78.4  T
   9   -270.2531221 -0.290981E-08  0.311E-05    1.02     275.9  T
     SCC iter.                  ...        0 min,  0.417 sec
     gradient                   ...        0 min,  0.271 sec
 * total energy  :  -266.6939510 Eh     change       -0.1338355E-01 Eh
   gradient norm :     0.0231966 Eh/α   predicted    -0.1318517E-01 (  -1.48%)
   displ. norm   :     0.7886334 α      lambda       -0.1163957E-01
   maximum displ.:     0.5670553 α      in ANC's #37, #30, #26, ...

........................................................................
.............................. CYCLE    6 ..............................
........................................................................
   1   -270.2949859 -0.270295E+03  0.173E-02    1.04       0.0  T
   2   -270.2950196 -0.337488E-04  0.941E-03    1.04       1.0  T
   3   -270.2950261 -0.648043E-05  0.559E-03    1.04       1.5  T
   4   -270.2950260  0.125571E-06  0.402E-03    1.04       2.1  T
   5   -270.2950299 -0.396398E-05  0.159E-03    1.04       5.4  T
   6   -270.2950305 -0.558625E-06  0.449E-04    1.04      19.1  T
   7   -270.2950305 -0.541583E-07  0.161E-04    1.04      53.2  T
   8   -270.2950305 -0.618326E-08  0.743E-05    1.04     115.3  T
     SCC iter.                  ...        0 min,  0.372 sec
     gradient                   ...        0 min,  0.273 sec
 * total energy  :  -266.7028488 Eh     change       -0.8897866E-02 Eh
   gradient norm :     0.0266758 Eh/α   predicted    -0.9439366E-02 (   6.09%)
   displ. norm   :     0.8185410 α      lambda       -0.1015659E-01
   maximum displ.:     0.5866022 α      in ANC's #37, #30, #18, ...

........................................................................
.............................. CYCLE    7 ..............................
........................................................................
   1   -270.3313804 -0.270331E+03  0.144E-02    1.05       0.0  T
   2   -270.3313948 -0.143460E-04  0.873E-03    1.05       1.0  T
   3   -270.3313984 -0.360087E-05  0.610E-03    1.05       1.4  T
   4   -270.3314027 -0.436289E-05  0.381E-03    1.05       2.3  T
   5   -270.3314066 -0.389075E-05  0.918E-04    1.05       9.3  T
   6   -270.3314067 -0.928216E-07  0.530E-04    1.05      16.2  T
   7   -270.3314068 -0.105147E-06  0.167E-04    1.05      51.5  T
   8   -270.3314068 -0.838747E-08  0.546E-05    1.05     157.2  T
     SCC iter.                  ...        0 min,  0.371 sec
     gradient                   ...        0 min,  0.275 sec
 * total energy  :  -266.7096866 Eh     change       -0.6837775E-02 Eh
   gradient norm :     0.0266058 Eh/α   predicted    -0.8480840E-02 (  24.03%)
   displ. norm   :     0.7083439 α      lambda       -0.6937733E-02
   maximum displ.:     0.4881947 α      in ANC's #37, #30, #26, ...

........................................................................
.............................. CYCLE    8 ..............................
........................................................................
   1   -270.3587139 -0.270359E+03  0.119E-02    1.04       0.0  T
   2   -270.3587164 -0.258603E-05  0.812E-03    1.04       1.1  T
   3   -270.3587256 -0.913379E-05  0.516E-03    1.04       1.7  T
   4   -270.3587310 -0.545550E-05  0.280E-03    1.04       3.1  T
   5   -270.3587326 -0.152183E-05  0.946E-04    1.04       9.1  T
   6   -270.3587328 -0.205547E-06  0.533E-04    1.04      16.1  T
   7   -270.3587329 -0.105181E-06  0.140E-04    1.04      61.4  T
   8   -270.3587329 -0.410370E-08  0.477E-05    1.04     179.6  T
     SCC iter.                  ...        0 min,  0.372 sec
     gradient                   ...        0 min,  0.275 sec
 * total energy  :  -266.7145844 Eh     change       -0.4897796E-02 Eh
   gradient norm :     0.0237861 Eh/α   predicted    -0.5209413E-02 (   6.36%)
   displ. norm   :     0.7083393 α      lambda       -0.5865193E-02
   maximum displ.:     0.4432094 α      in ANC's #37, #30, #26, ...

........................................................................
.............................. CYCLE    9 ..............................
........................................................................
   1   -270.3824232 -0.270382E+03  0.137E-02    1.03       0.0  T
   2   -270.3824298 -0.662894E-05  0.103E-02    1.03       1.0  T
   3   -270.3824511 -0.213397E-04  0.486E-03    1.03       1.8  T
   4   -270.3824526 -0.148481E-05  0.362E-03    1.03       2.4  T
   5   -270.3824559 -0.329818E-05  0.108E-03    1.03       7.9  T
   6   -270.3824560 -0.105816E-06  0.595E-04    1.03      14.4  T
   7   -270.3824561 -0.128638E-06  0.185E-04    1.03      46.3  T
   8   -270.3824562 -0.106329E-07  0.646E-05    1.03     132.7  T
     SCC iter.                  ...        0 min,  0.372 sec
     gradient                   ...        0 min,  0.275 sec
 * total energy  :  -266.7184067 Eh     change       -0.3822246E-02 Eh
   gradient norm :     0.0169886 Eh/α   predicted    -0.4404010E-02 (  15.22%)
   displ. norm   :     0.6174777 α      lambda       -0.3057794E-02
   maximum displ.:     0.3251640 α      in ANC's #37, #30, #18, ...

........................................................................
.............................. CYCLE   10 ..............................
........................................................................
   1   -270.3982750 -0.270398E+03  0.961E-03    1.03       0.0  T
   2   -270.3982780 -0.304333E-05  0.610E-03    1.03       1.4  T
   3   -270.3982834 -0.536308E-05  0.382E-03    1.03       2.2  T
   4   -270.3982868 -0.347431E-05  0.216E-03    1.03       4.0  T
   5   -270.3982877 -0.821591E-06  0.726E-04    1.03      11.8  T
   6   -270.3982877 -0.818030E-07  0.423E-04    1.03      20.3  T
   7   -270.3982878 -0.704364E-07  0.109E-04    1.03      79.0  T
   8   -270.3982878 -0.279528E-08  0.376E-05    1.03     227.8  T
     SCC iter.                  ...        0 min,  0.372 sec
     gradient                   ...        0 min,  0.276 sec
 * total energy  :  -266.7208027 Eh     change       -0.2396056E-02 Eh
   gradient norm :     0.0167826 Eh/α   predicted    -0.2111836E-02 ( -11.86%)
   displ. norm   :     0.6027850 α      lambda       -0.2339761E-02
   maximum displ.:     0.2298286 α      in ANC's #18, #30, #37, ...

........................................................................
.............................. CYCLE   11 ..............................
........................................................................
   1   -270.4142462 -0.270414E+03  0.817E-03    1.02       0.0  T
   2   -270.4142484 -0.219089E-05  0.496E-03    1.03       1.7  T
   3   -270.4142518 -0.337127E-05  0.315E-03    1.02       2.7  T
   4   -270.4142539 -0.218849E-05  0.169E-03    1.02       5.1  T
   5   -270.4142546 -0.658267E-06  0.575E-04    1.02      14.9  T
   6   -270.4142546 -0.454868E-07  0.338E-04    1.02      25.4  T
   7   -270.4142547 -0.389524E-07  0.100E-04    1.02      85.5  T
   8   -270.4142547 -0.254670E-08  0.335E-05    1.02     255.6  T
     SCC iter.                  ...        0 min,  0.371 sec
     gradient                   ...        0 min,  0.277 sec
 * total energy  :  -266.7225943 Eh     change       -0.1791600E-02 Eh
   gradient norm :     0.0115315 Eh/α   predicted    -0.1594953E-02 ( -10.98%)
   displ. norm   :     0.6105184 α      lambda       -0.1754633E-02
   maximum displ.:     0.2479884 α      in ANC's #18, #21, #30, ...

........................................................................
.............................. CYCLE   12 ..............................
........................................................................
   1   -270.4205737 -0.270421E+03  0.853E-03    1.03       0.0  T
   2   -270.4205790 -0.530399E-05  0.467E-03    1.03       1.8  T
   3   -270.4205803 -0.127985E-05  0.308E-03    1.03       2.8  T
   4   -270.4205812 -0.861035E-06  0.212E-03    1.03       4.0  T
   5   -270.4205824 -0.126761E-05  0.544E-04    1.03      15.8  T
   6   -270.4205825 -0.447210E-07  0.315E-04    1.03      27.2  T
   7   -270.4205825 -0.348253E-07  0.946E-05    1.03      90.6  T
   8   -270.4205825 -0.277851E-08  0.350E-05    1.03     244.9  T
     SCC iter.                  ...        0 min,  0.372 sec
     gradient                   ...        0 min,  0.276 sec
 * total energy  :  -266.7239071 Eh     change       -0.1312773E-02 Eh
   gradient norm :     0.0164758 Eh/α   predicted    -0.1204329E-02 (  -8.26%)
   displ. norm   :     0.5907696 α      lambda       -0.1576690E-02
   maximum displ.:     0.2553061 α      in ANC's #21, #18, #22, ...

........................................................................
.............................. CYCLE   13 ..............................
........................................................................
   1   -270.4276886 -0.270428E+03  0.651E-03    1.03       0.0  T
   2   -270.4276928 -0.417209E-05  0.332E-03    1.03       2.6  T
   3   -270.4276939 -0.110233E-05  0.195E-03    1.03       4.4  T
   4   -270.4276947 -0.755045E-06  0.113E-03    1.03       7.6  T
   5   -270.4276949 -0.266872E-06  0.464E-04    1.03      18.5  T
   6   -270.4276950 -0.403662E-07  0.192E-04    1.03      44.6  T
   7   -270.4276950 -0.108943E-07  0.896E-05    1.03      95.7  T
     SCC iter.                  ...        0 min,  0.325 sec
     gradient                   ...        0 min,  0.274 sec
 * total energy  :  -266.7251175 Eh     change       -0.1210401E-02 Eh
   gradient norm :     0.0102914 Eh/α   predicted    -0.1063490E-02 ( -12.14%)
   displ. norm   :     0.6174649 α      lambda       -0.1378443E-02
   maximum displ.:     0.2951178 α      in ANC's #21, #18, #11, ...

........................................................................
.............................. CYCLE   14 ..............................
........................................................................
   1   -270.4278353 -0.270428E+03  0.627E-03    1.03       0.0  T
   2   -270.4278396 -0.435261E-05  0.285E-03    1.03       3.0  T
   3   -270.4278399 -0.297361E-06  0.175E-03    1.03       4.9  T
   4   -270.4278398  0.648864E-07  0.120E-03    1.03       7.2  T
   5   -270.4278402 -0.323652E-06  0.476E-04    1.03      18.0  T
   6   -270.4278402 -0.667807E-07  0.199E-04    1.03      43.1  T
   7   -270.4278402 -0.123674E-07  0.616E-05    1.03     139.1  T
     SCC iter.                  ...        0 min,  0.325 sec
     gradient                   ...        0 min,  0.277 sec
 * total energy  :  -266.7262669 Eh     change       -0.1149385E-02 Eh
   gradient norm :     0.0113511 Eh/α   predicted    -0.9519968E-03 ( -17.17%)
   displ. norm   :     0.6749569 α      lambda       -0.1489840E-02
   maximum displ.:     0.3465900 α      in ANC's #21, #18, #11, ...

........................................................................
.............................. CYCLE   15 ..............................
........................................................................
   1   -270.4250566 -0.270425E+03  0.623E-03    1.03       0.0  T
   2   -270.4250604 -0.385462E-05  0.317E-03    1.03       2.7  T
   3   -270.4250605 -0.813898E-07  0.229E-03    1.03       3.7  T
   4   -270.4250608 -0.313055E-06  0.162E-03    1.03       5.3  T
   5   -270.4250615 -0.743890E-06  0.318E-04    1.03      26.9  T
   6   -270.4250616 -0.831312E-08  0.212E-04    1.03      40.4  T
   7   -270.4250616 -0.180024E-07  0.623E-05    1.03     137.7  T
   8   -270.4250616 -0.121844E-08  0.185E-05    1.03     463.7  T
     SCC iter.                  ...        0 min,  0.372 sec
     gradient                   ...        0 min,  0.274 sec
 * total energy  :  -266.7274606 Eh     change       -0.1193727E-02 Eh
   gradient norm :     0.0128787 Eh/α   predicted    -0.1084284E-02 (  -9.17%)
   displ. norm   :     0.6748345 α      lambda       -0.1342292E-02
   maximum displ.:     0.3737346 α      in ANC's #21, #22, #18, ...

........................................................................
.............................. CYCLE   16 ..............................
........................................................................
   1   -270.4216742 -0.270422E+03  0.111E-02    1.03       0.0  T
   2   -270.4216831 -0.892999E-05  0.439E-03    1.03       2.0  T
   3   -270.4216812  0.191573E-05  0.399E-03    1.03       2.2  T
   4   -270.4216856 -0.444430E-05  0.169E-03    1.03       5.1  T
   5   -270.4216861 -0.415360E-06  0.702E-04    1.03      12.2  T
   6   -270.4216862 -0.143568E-06  0.297E-04    1.03      28.9  T
   7   -270.4216862 -0.317464E-07  0.775E-05    1.03     110.7  T
   8   -270.4216862 -0.129694E-08  0.333E-05    1.03     257.4  T
     SCC iter.                  ...        0 min,  0.371 sec
     gradient                   ...        0 min,  0.275 sec
 * total energy  :  -266.7284050 Eh     change       -0.9443704E-03 Eh
   gradient norm :     0.0144435 Eh/α   predicted    -0.9767865E-03 (   3.43%)
   displ. norm   :     0.6607456 α      lambda       -0.1091366E-02
   maximum displ.:     0.3705584 α      in ANC's #21, #11, #22, ...

........................................................................
.............................. CYCLE   17 ..............................
........................................................................
   1   -270.4128293 -0.270413E+03  0.802E-03    1.03       0.0  T
   2   -270.4128334 -0.408789E-05  0.472E-03    1.03       1.8  T
   3   -270.4128357 -0.232105E-05  0.328E-03    1.03       2.6  T
   4   -270.4128381 -0.242282E-05  0.179E-03    1.03       4.8  T
   5   -270.4128386 -0.518031E-06  0.545E-04    1.03      15.7  T
   6   -270.4128387 -0.772420E-07  0.263E-04    1.03      32.6  T
   7   -270.4128387 -0.242358E-07  0.731E-05    1.03     117.3  T
   8   -270.4128387 -0.165528E-08  0.281E-05    1.03     305.1  T
     SCC iter.                  ...        0 min,  0.371 sec
     gradient                   ...        0 min,  0.276 sec
 * total energy  :  -266.7291991 Eh     change       -0.7940950E-03 Eh
   gradient norm :     0.0152678 Eh/α   predicted    -0.7839201E-03 (  -1.28%)
   displ. norm   :     0.5624506 α      lambda       -0.9164857E-03
   maximum displ.:     0.3284797 α      in ANC's #21, #22, #11, ...

........................................................................
.............................. CYCLE   18 ..............................
........................................................................
   1   -270.4184063 -0.270418E+03  0.823E-03    1.03       0.0  T
   2   -270.4184084 -0.213138E-05  0.481E-03    1.03       1.8  T
   3   -270.4184096 -0.114079E-05  0.397E-03    1.03       2.2  T
   4   -270.4184131 -0.357364E-05  0.167E-03    1.03       5.1  T
   5   -270.4184136 -0.495700E-06  0.469E-04    1.03      18.3  T
   6   -270.4184137 -0.460969E-07  0.153E-04    1.03      56.0  T
   7   -270.4184137 -0.562198E-08  0.621E-05    1.03     138.1  T
     SCC iter.                  ...        0 min,  0.325 sec
     gradient                   ...        0 min,  0.275 sec
 * total energy  :  -266.7298400 Eh     change       -0.6409301E-03 Eh
   gradient norm :     0.0145516 Eh/α   predicted    -0.6032097E-03 (  -5.89%)
   displ. norm   :     0.6567264 α      lambda       -0.9734415E-03
   maximum displ.:     0.3990525 α      in ANC's #21, #22, #11, ...

........................................................................
.............................. CYCLE   19 ..............................
........................................................................
   1   -270.4151228 -0.270415E+03  0.823E-03    1.04       0.0  T
   2   -270.4151252 -0.239288E-05  0.499E-03    1.04       1.7  T
   3   -270.4151270 -0.178463E-05  0.391E-03    1.04       2.2  T
   4   -270.4151302 -0.320994E-05  0.171E-03    1.04       5.0  T
   5   -270.4151307 -0.522194E-06  0.439E-04    1.04      19.5  T
   6   -270.4151307 -0.356964E-07  0.205E-04    1.04      41.9  T
   7   -270.4151307 -0.109439E-07  0.717E-05    1.04     119.5  T
   8   -270.4151307 -0.142057E-08  0.336E-05    1.04     255.0  T
     SCC iter.                  ...        0 min,  0.370 sec
     gradient                   ...        0 min,  0.274 sec
 * total energy  :  -266.7305558 Eh     change       -0.7158080E-03 Eh
   gradient norm :     0.0111771 Eh/α   predicted    -0.6966412E-03 (  -2.68%)
   displ. norm   :     0.5789232 α      lambda       -0.8515518E-03
   maximum displ.:     0.3503011 α      in ANC's #21, #22, #11, ...

........................................................................
.............................. CYCLE   20 ..............................
........................................................................
   1   -270.4222627 -0.270422E+03  0.749E-03    1.03       0.0  T
   2   -270.4222658 -0.310927E-05  0.460E-03    1.04       1.9  T
   3   -270.4222683 -0.245735E-05  0.339E-03    1.03       2.5  T
   4   -270.4222709 -0.264797E-05  0.152E-03    1.03       5.6  T
   5   -270.4222711 -0.207761E-06  0.435E-04    1.03      19.7  T
   6   -270.4222712 -0.594964E-07  0.198E-04    1.03      43.4  T
   7   -270.4222712 -0.146566E-07  0.687E-05    1.03     124.9  T
     SCC iter.                  ...        0 min,  0.325 sec
     gradient                   ...        0 min,  0.276 sec
 * total energy  :  -266.7311606 Eh     change       -0.6047954E-03 Eh
   gradient norm :     0.0143839 Eh/α   predicted    -0.5684767E-03 (  -6.01%)
   displ. norm   :     0.5802291 α      lambda       -0.7499942E-03
   maximum displ.:     0.3545631 α      in ANC's #21, #22, #11, ...
 * RMSD in coord.:     0.8135584 α      energy gain  -0.2189958E+00 Eh

generating ANC from model Hessian ...
Using Lindh-Hessian (1995)
 Shifting diagonal of input Hessian by    1.0003947797192467E-002
 Lowest  eigenvalues of input Hessian
    0.010000    0.000000    0.000000    0.000000    0.000000    0.000000
    0.000000    0.010005    0.010016    0.010020    0.010072    0.010080
    0.010137    0.010143    0.010190    0.010337    0.010367    0.010390
 Highest eigenvalues
    2.800788    2.988638    3.626746    3.628217    3.630493    3.630886


........................................................................
.............................. CYCLE   21 ..............................
........................................................................
   1   -270.4271343 -0.270427E+03  0.790E-03    1.03       0.0  T
   2   -270.4271395 -0.527796E-05  0.390E-03    1.03       2.2  T
   3   -270.4271396 -0.115839E-06  0.332E-03    1.03       2.6  T
   4   -270.4271423 -0.268871E-05  0.142E-03    1.03       6.0  T
   5   -270.4271426 -0.259450E-06  0.457E-04    1.03      18.7  T
   6   -270.4271426 -0.461545E-07  0.179E-04    1.03      47.9  T
   7   -270.4271427 -0.107902E-07  0.754E-05    1.03     113.8  T
     SCC iter.                  ...        0 min,  0.325 sec
     gradient                   ...        0 min,  0.274 sec
 * total energy  :  -266.7317213 Eh     change       -0.5606971E-03 Eh
   gradient norm :     0.0103826 Eh/α   predicted     0.0000000E+00 (-100.00%)
   displ. norm   :     0.0901645 α      lambda       -0.2507953E-03
   maximum displ.:     0.0401298 α      in ANC's #22, #30, #26, ...

........................................................................
.............................. CYCLE   22 ..............................
........................................................................
   1   -270.4281979 -0.270428E+03  0.248E-03    1.03       0.0  T
   2   -270.4281987 -0.739916E-06  0.137E-03    1.03       6.3  T
   3   -270.4281988 -0.129357E-06  0.853E-04    1.03      10.0  T
   4   -270.4281988 -0.232527E-07  0.595E-04    1.03      14.4  T
   5   -270.4281989 -0.818367E-07  0.222E-04    1.03      38.7  T
   6   -270.4281989 -0.146104E-07  0.791E-05    1.03     108.5  T
   7   -270.4281989 -0.269705E-08  0.303E-05    1.03     282.7  T
     SCC iter.                  ...        0 min,  0.325 sec
     gradient                   ...        0 min,  0.275 sec
 * total energy  :  -266.7319276 Eh     change       -0.2062856E-03 Eh
   gradient norm :     0.0058172 Eh/α   predicted    -0.1264195E-03 ( -38.72%)
   displ. norm   :     0.3015324 α      lambda       -0.5573684E-03
   maximum displ.:     0.1406661 α      in ANC's #22, #30, #40, ...

........................................................................
.............................. CYCLE   23 ..............................
........................................................................
   1   -270.4281051 -0.270428E+03  0.651E-03    1.03       0.0  T
   2   -270.4281105 -0.544823E-05  0.361E-03    1.03       2.4  T
   3   -270.4281115 -0.950358E-06  0.229E-03    1.03       3.7  T
   4   -270.4281118 -0.314631E-06  0.155E-03    1.03       5.5  T
   5   -270.4281122 -0.440214E-06  0.705E-04    1.03      12.2  T
   6   -270.4281124 -0.152273E-06  0.208E-04    1.03      41.3  T
   7   -270.4281124 -0.185024E-07  0.927E-05    1.03      92.5  T
   8   -270.4281124 -0.267727E-08  0.311E-05    1.03     275.5  T
     SCC iter.                  ...        0 min,  0.371 sec
     gradient                   ...        0 min,  0.275 sec
 * total energy  :  -266.7321781 Eh     change       -0.2504893E-03 Eh
   gradient norm :     0.0091509 Eh/α   predicted    -0.3040595E-03 (  21.39%)
   displ. norm   :     0.3541967 α      lambda       -0.6472477E-03
   maximum displ.:     0.1672660 α      in ANC's #22, #16, #40, ...

........................................................................
.............................. CYCLE   24 ..............................
........................................................................
   1   -270.4250731 -0.270425E+03  0.632E-03    1.03       0.0  T
   2   -270.4250780 -0.484204E-05  0.355E-03    1.03       2.4  T
   3   -270.4250787 -0.751313E-06  0.235E-03    1.03       3.6  T
   4   -270.4250791 -0.414311E-06  0.152E-03    1.03       5.6  T
   5   -270.4250795 -0.398628E-06  0.744E-04    1.03      11.5  T
   6   -270.4250797 -0.171986E-06  0.188E-04    1.03      45.6  T
   7   -270.4250797 -0.133913E-07  0.933E-05    1.03      91.9  T
     SCC iter.                  ...        0 min,  0.326 sec
     gradient                   ...        0 min,  0.275 sec
 * total energy  :  -266.7321972 Eh     change       -0.1907533E-04 Eh
   gradient norm :     0.0163481 Eh/α   predicted    -0.3642257E-03 (1809.41%)
   displ. norm   :     0.0966465 α      lambda       -0.5742657E-03
   maximum displ.:     0.0546688 α      in ANC's #17, #38, #37, ...

........................................................................
.............................. CYCLE   25 ..............................
........................................................................
   1   -270.4259204 -0.270426E+03  0.279E-03    1.03       0.0  T
   2   -270.4259212 -0.758294E-06  0.170E-03    1.03       5.1  T
   3   -270.4259214 -0.196202E-06  0.102E-03    1.03       8.4  T
   4   -270.4259213  0.406014E-07  0.739E-04    1.03      11.6  T
   5   -270.4259215 -0.158695E-06  0.223E-04    1.03      38.4  T
   6   -270.4259215 -0.132222E-07  0.882E-05    1.03      97.2  T
   7   -270.4259215 -0.327714E-08  0.238E-05    1.03     360.1  T
     SCC iter.                  ...        0 min,  0.325 sec
     gradient                   ...        0 min,  0.276 sec
 * total energy  :  -266.7324981 Eh     change       -0.3009604E-03 Eh
   gradient norm :     0.0097482 Eh/α   predicted    -0.2898185E-03 (  -3.70%)
   displ. norm   :     0.1415226 α      lambda       -0.5148380E-03
   maximum displ.:     0.0646028 α      in ANC's #25, #38, #37, ...

........................................................................
.............................. CYCLE   26 ..............................
........................................................................
   1   -270.4263282 -0.270426E+03  0.397E-03    1.03       0.0  T
   2   -270.4263301 -0.181785E-05  0.234E-03    1.03       3.7  T
   3   -270.4263305 -0.479478E-06  0.143E-03    1.03       6.0  T
   4   -270.4263305  0.253418E-07  0.103E-03    1.03       8.3  T
   5   -270.4263308 -0.283400E-06  0.344E-04    1.03      24.9  T
   6   -270.4263308 -0.299542E-07  0.130E-04    1.03      65.9  T
   7   -270.4263308 -0.754699E-08  0.366E-05    1.03     234.0  T
     SCC iter.                  ...        0 min,  0.325 sec
     gradient                   ...        0 min,  0.276 sec
 * total energy  :  -266.7326254 Eh     change       -0.1273034E-03 Eh
   gradient norm :     0.0051409 Eh/α   predicted    -0.2625755E-03 ( 106.26%)
   displ. norm   :     0.2327447 α      lambda       -0.3473131E-03
   maximum displ.:     0.1222743 α      in ANC's #22, #40, #16, ...

........................................................................
.............................. CYCLE   27 ..............................
........................................................................
   1   -270.4243220 -0.270424E+03  0.331E-03    1.03       0.0  T
   2   -270.4243233 -0.126190E-05  0.166E-03    1.03       5.2  T
   3   -270.4243234 -0.776621E-07  0.107E-03    1.03       8.0  T
   4   -270.4243233  0.559781E-07  0.773E-04    1.03      11.1  T
   5   -270.4243235 -0.162512E-06  0.285E-04    1.03      30.1  T
   6   -270.4243235 -0.265159E-07  0.774E-05    1.03     110.8  T
   7   -270.4243235 -0.159969E-08  0.272E-05    1.03     314.7  T
     SCC iter.                  ...        0 min,  0.325 sec
     gradient                   ...        0 min,  0.276 sec
 * total energy  :  -266.7329031 Eh     change       -0.2776739E-03 Eh
   gradient norm :     0.0047666 Eh/α   predicted    -0.1830623E-03 ( -34.07%)
   displ. norm   :     0.4684871 α      lambda       -0.4621455E-03
   maximum displ.:     0.2480344 α      in ANC's #22, #40, #14, ...

........................................................................
.............................. CYCLE   28 ..............................
........................................................................
   1   -270.4192201 -0.270419E+03  0.629E-03    1.04       0.0  T
   2   -270.4192248 -0.468154E-05  0.296E-03    1.04       2.9  T
   3   -270.4192250 -0.193085E-06  0.191E-03    1.04       4.5  T
   4   -270.4192243  0.687245E-06  0.173E-03    1.04       5.0  T
   5   -270.4192254 -0.108028E-05  0.238E-04    1.04      36.1  T
   6   -270.4192254 -0.854470E-09  0.144E-04    1.04      59.4  T
   7   -270.4192254 -0.610919E-08  0.557E-05    1.04     153.9  T
     SCC iter.                  ...        0 min,  0.326 sec
     gradient                   ...        0 min,  0.275 sec
 * total energy  :  -266.7332449 Eh     change       -0.3418351E-03 Eh
   gradient norm :     0.0083835 Eh/α   predicted    -0.2817900E-03 ( -17.57%)
   displ. norm   :     0.4324984 α      lambda       -0.3397229E-03
   maximum displ.:     0.2281123 α      in ANC's #22, #40, #14, ...

........................................................................
.............................. CYCLE   29 ..............................
........................................................................
   1   -270.4162389 -0.270416E+03  0.497E-03    1.04       0.0  T
   2   -270.4162418 -0.290412E-05  0.238E-03    1.04       3.6  T
   3   -270.4162420 -0.231735E-06  0.171E-03    1.04       5.0  T
   4   -270.4162424 -0.329824E-06  0.114E-03    1.04       7.5  T
   5   -270.4162427 -0.343155E-06  0.285E-04    1.04      30.1  T
   6   -270.4162427 -0.379231E-08  0.209E-04    1.04      41.1  T
   7   -270.4162427 -0.169015E-07  0.519E-05    1.04     165.2  T
   8   -270.4162427 -0.799787E-09  0.202E-05    1.04     424.5  T
     SCC iter.                  ...        0 min,  0.371 sec
     gradient                   ...        0 min,  0.277 sec
 * total energy  :  -266.7335077 Eh     change       -0.2627291E-03 Eh
   gradient norm :     0.0109276 Eh/α   predicted    -0.2016410E-03 ( -23.25%)
   displ. norm   :     0.4114745 α      lambda       -0.4203435E-03
   maximum displ.:     0.2041208 α      in ANC's #22, #40, #14, ...

........................................................................
.............................. CYCLE   30 ..............................
........................................................................
   1   -270.4187851 -0.270419E+03  0.448E-03    1.04       0.0  T
   2   -270.4187854 -0.242690E-06  0.292E-03    1.04       2.9  T
   3   -270.4187874 -0.202257E-05  0.199E-03    1.04       4.3  T
   4   -270.4187884 -0.103811E-05  0.708E-04    1.04      12.1  T
   5   -270.4187884 -0.182748E-07  0.350E-04    1.04      24.5  T
   6   -270.4187885 -0.352367E-07  0.155E-04    1.04      55.3  T
   7   -270.4187885 -0.730455E-08  0.595E-05    1.04     144.2  T
     SCC iter.                  ...        0 min,  0.326 sec
     gradient                   ...        0 min,  0.275 sec
 * total energy  :  -266.7338354 Eh     change       -0.3276996E-03 Eh
   gradient norm :     0.0086011 Eh/α   predicted    -0.2457579E-03 ( -25.01%)
   displ. norm   :     0.4456183 α      lambda       -0.4258456E-03
   maximum displ.:     0.2191676 α      in ANC's #40, #22, #14, ...

........................................................................
.............................. CYCLE   31 ..............................
........................................................................
   1   -270.4202416 -0.270420E+03  0.498E-03    1.04       0.0  T
   2   -270.4202425 -0.957933E-06  0.318E-03    1.04       2.7  T
   3   -270.4202454 -0.289484E-05  0.203E-03    1.04       4.2  T
   4   -270.4202467 -0.129329E-05  0.648E-04    1.04      13.2  T
   5   -270.4202467  0.272059E-07  0.346E-04    1.04      24.8  T
   6   -270.4202467 -0.345236E-07  0.172E-04    1.04      49.9  T
   7   -270.4202467 -0.945533E-08  0.562E-05    1.04     152.5  T
     SCC iter.                  ...        0 min,  0.327 sec
     gradient                   ...        0 min,  0.274 sec
 * total energy  :  -266.7341564 Eh     change       -0.3210839E-03 Eh
   gradient norm :     0.0064290 Eh/α   predicted    -0.2552065E-03 ( -20.52%)
   displ. norm   :     0.3622237 α      lambda       -0.3363110E-03
   maximum displ.:     0.1690976 α      in ANC's #40, #14, #22, ...

........................................................................
.............................. CYCLE   32 ..............................
........................................................................
   1   -270.4266921 -0.270427E+03  0.691E-03    1.04       0.0  T
   2   -270.4266921 -0.376620E-07  0.476E-03    1.04       1.8  T
   3   -270.4266955 -0.332618E-05  0.351E-03    1.04       2.4  T
   4   -270.4266980 -0.248290E-05  0.136E-03    1.04       6.3  T
   5   -270.4266982 -0.225465E-06  0.408E-04    1.04      21.0  T
   6   -270.4266982 -0.642587E-07  0.161E-04    1.04      53.1  T
   7   -270.4266983 -0.869591E-08  0.598E-05    1.04     143.5  T
     SCC iter.                  ...        0 min,  0.325 sec
     gradient                   ...        0 min,  0.275 sec
 * total energy  :  -266.7343804 Eh     change       -0.2239364E-03 Eh
   gradient norm :     0.0049296 Eh/α   predicted    -0.1902357E-03 ( -15.05%)
   displ. norm   :     0.5968860 α      lambda       -0.3276757E-03
   maximum displ.:     0.2852589 α      in ANC's #40, #14, #22, ...

........................................................................
.............................. CYCLE   33 ..............................
........................................................................
   1   -270.4158832 -0.270416E+03  0.113E-02    1.04       0.0  T
   2   -270.4158958 -0.125894E-04  0.539E-03    1.04       1.6  T
   3   -270.4158959 -0.610971E-07  0.375E-03    1.04       2.3  T
   4   -270.4158954  0.528248E-06  0.304E-03    1.04       2.8  T
   5   -270.4158985 -0.315326E-05  0.482E-04    1.04      17.8  T
   6   -270.4158985 -0.224405E-07  0.329E-04    1.04      26.0  T
   7   -270.4158986 -0.402152E-07  0.956E-05    1.04      89.7  T
   8   -270.4158986 -0.323075E-08  0.295E-05    1.04     290.7  T
     SCC iter.                  ...        0 min,  0.372 sec
     gradient                   ...        0 min,  0.277 sec
 * total energy  :  -266.7344994 Eh     change       -0.1190676E-03 Eh
   gradient norm :     0.0130704 Eh/α   predicted    -0.2222091E-03 (  86.62%)
   displ. norm   :     0.1425471 α      lambda       -0.2759705E-03
   maximum displ.:     0.0650995 α      in ANC's #22, #18, #28, ...

........................................................................
.............................. CYCLE   34 ..............................
........................................................................
   1   -270.4231323 -0.270423E+03  0.563E-03    1.04       0.0  T
   2   -270.4231331 -0.759775E-06  0.340E-03    1.04       2.5  T
   3   -270.4231319  0.125256E-05  0.295E-03    1.04       2.9  T
   4   -270.4231339 -0.205851E-05  0.109E-03    1.04       7.8  T
   5   -270.4231342 -0.318152E-06  0.219E-04    1.04      39.1  T
   6   -270.4231342 -0.129660E-07  0.950E-05    1.04      90.2  T
   7   -270.4231342 -0.396091E-08  0.349E-05    1.04     245.4  T
     SCC iter.                  ...        0 min,  0.325 sec
     gradient                   ...        0 min,  0.278 sec
 * total energy  :  -266.7346969 Eh     change       -0.1974772E-03 Eh
   gradient norm :     0.0062895 Eh/α   predicted    -0.1407925E-03 ( -28.70%)
   displ. norm   :     0.3602126 α      lambda       -0.2532075E-03
   maximum displ.:     0.1650811 α      in ANC's #14, #40, #6, ...

........................................................................
.............................. CYCLE   35 ..............................
........................................................................
   1   -270.4249686 -0.270425E+03  0.637E-03    1.04       0.0  T
   2   -270.4249755 -0.685402E-05  0.289E-03    1.04       3.0  T
   3   -270.4249768 -0.128831E-05  0.180E-03    1.04       4.8  T
   4   -270.4249778 -0.977036E-06  0.738E-04    1.04      11.6  T
   5   -270.4249778 -0.346143E-07  0.255E-04    1.04      33.7  T
   6   -270.4249778 -0.708718E-08  0.129E-04    1.04      66.7  T
   7   -270.4249778 -0.648623E-08  0.401E-05    1.04     213.9  T
     SCC iter.                  ...        0 min,  0.326 sec
     gradient                   ...        0 min,  0.275 sec
 * total energy  :  -266.7348890 Eh     change       -0.1920615E-03 Eh
   gradient norm :     0.0057040 Eh/α   predicted    -0.1430327E-03 ( -25.53%)
   displ. norm   :     0.4271935 α      lambda       -0.2260285E-03
   maximum displ.:     0.2098576 α      in ANC's #14, #40, #6, ...

........................................................................
.............................. CYCLE   36 ..............................
........................................................................
   1   -270.4231237 -0.270423E+03  0.721E-03    1.04       0.0  T
   2   -270.4231335 -0.982802E-05  0.287E-03    1.04       3.0  T
   3   -270.4231347 -0.122257E-05  0.158E-03    1.04       5.4  T
   4   -270.4231352 -0.521333E-06  0.928E-04    1.04       9.2  T
   5   -270.4231354 -0.146912E-06  0.314E-04    1.04      27.3  T
   6   -270.4231354 -0.850741E-08  0.191E-04    1.04      44.9  T
   7   -270.4231354 -0.143723E-07  0.449E-05    1.04     191.0  T
     SCC iter.                  ...        0 min,  0.325 sec
     gradient                   ...        0 min,  0.274 sec
 * total energy  :  -266.7350628 Eh     change       -0.1737748E-03 Eh
   gradient norm :     0.0066262 Eh/α   predicted    -0.1336435E-03 ( -23.09%)
   displ. norm   :     0.3999569 α      lambda       -0.2153468E-03
   maximum displ.:     0.2073053 α      in ANC's #14, #6, #18, ...

........................................................................
.............................. CYCLE   37 ..............................
........................................................................
   1   -270.4225747 -0.270423E+03  0.658E-03    1.04       0.0  T
   2   -270.4225831 -0.844886E-05  0.251E-03    1.04       3.4  T
   3   -270.4225841 -0.103541E-05  0.144E-03    1.04       6.0  T
   4   -270.4225848 -0.617725E-06  0.718E-04    1.04      11.9  T
   5   -270.4225848 -0.572720E-07  0.345E-04    1.04      24.8  T
   6   -270.4225848 -0.117209E-07  0.189E-04    1.04      45.3  T
   7   -270.4225848 -0.153521E-07  0.367E-05    1.04     233.5  T
     SCC iter.                  ...        0 min,  0.328 sec
     gradient                   ...        0 min,  0.274 sec
 * total energy  :  -266.7352215 Eh     change       -0.1587435E-03 Eh
   gradient norm :     0.0057491 Eh/α   predicted    -0.1248982E-03 ( -21.32%)
   displ. norm   :     0.3350685 α      lambda       -0.1742373E-03
   maximum displ.:     0.1752994 α      in ANC's #14, #6, #18, ...

........................................................................
.............................. CYCLE   38 ..............................
........................................................................
   1   -270.4228308 -0.270423E+03  0.475E-03    1.04       0.0  T
   2   -270.4228349 -0.411862E-05  0.188E-03    1.04       4.6  T
   3   -270.4228353 -0.332234E-06  0.114E-03    1.04       7.5  T
   4   -270.4228353 -0.782869E-07  0.815E-04    1.04      10.5  T
   5   -270.4228355 -0.148669E-06  0.290E-04    1.04      29.5  T
   6   -270.4228355 -0.164786E-07  0.130E-04    1.04      65.8  T
   7   -270.4228355 -0.793625E-08  0.319E-05    1.04     269.2  T
     SCC iter.                  ...        0 min,  0.326 sec
     gradient                   ...        0 min,  0.277 sec
 * total energy  :  -266.7353539 Eh     change       -0.1324135E-03 Eh
   gradient norm :     0.0057557 Eh/α   predicted    -0.9690051E-04 ( -26.82%)
   displ. norm   :     0.3269431 α      lambda       -0.1982407E-03
   maximum displ.:     0.1697524 α      in ANC's #14, #22, #6, ...

........................................................................
.............................. CYCLE   39 ..............................
........................................................................
   1   -270.4251440 -0.270425E+03  0.455E-03    1.04       0.0  T
   2   -270.4251469 -0.288084E-05  0.159E-03    1.04       5.4  T
   3   -270.4251470 -0.743212E-07  0.100E-03    1.04       8.6  T
   4   -270.4251469  0.932645E-07  0.765E-04    1.04      11.2  T
   5   -270.4251471 -0.176826E-06  0.260E-04    1.04      33.0  T
   6   -270.4251471 -0.202843E-07  0.653E-05    1.04     131.2  T
   7   -270.4251471 -0.168581E-08  0.253E-05    1.04     338.7  T
     SCC iter.                  ...        0 min,  0.326 sec
     gradient                   ...        0 min,  0.275 sec
 * total energy  :  -266.7354806 Eh     change       -0.1266682E-03 Eh
   gradient norm :     0.0062992 Eh/α   predicted    -0.1097162E-03 ( -13.38%)
   displ. norm   :     0.3918285 α      lambda       -0.1695632E-03
   maximum displ.:     0.2141289 α      in ANC's #14, #6, #7, ...

........................................................................
.............................. CYCLE   40 ..............................
........................................................................
   1   -270.4209690 -0.270421E+03  0.729E-03    1.04       0.0  T
   2   -270.4209733 -0.437187E-05  0.366E-03    1.04       2.3  T
   3   -270.4209733  0.463402E-07  0.245E-03    1.04       3.5  T
   4   -270.4209731  0.158626E-06  0.165E-03    1.04       5.2  T
   5   -270.4209742 -0.109003E-05  0.383E-04    1.04      22.4  T
   6   -270.4209743 -0.367585E-07  0.169E-04    1.04      50.8  T
   7   -270.4209743 -0.122168E-07  0.643E-05    1.04     133.3  T
     SCC iter.                  ...        0 min,  0.326 sec
     gradient                   ...        0 min,  0.275 sec
 * total energy  :  -266.7355554 Eh     change       -0.7485732E-04 Eh
   gradient norm :     0.0093295 Eh/α   predicted    -0.9779867E-04 (  30.65%)
   displ. norm   :     0.1662474 α      lambda       -0.1532996E-03
   maximum displ.:     0.0718275 α      in ANC's #25, #22, #20, ...

........................................................................
.............................. CYCLE   41 ..............................
........................................................................
   1   -270.4277068 -0.270428E+03  0.673E-03    1.03       0.0  T
   2   -270.4277074 -0.575831E-06  0.415E-03    1.03       2.1  T
   3   -270.4277048  0.263756E-05  0.376E-03    1.03       2.3  T
   4   -270.4277087 -0.395140E-05  0.107E-03    1.03       8.0  T
   5   -270.4277090 -0.279801E-06  0.332E-04    1.03      25.8  T
   6   -270.4277090 -0.386212E-07  0.125E-04    1.03      68.7  T
   7   -270.4277090 -0.681194E-08  0.460E-05    1.03     186.4  T
     SCC iter.                  ...        0 min,  0.326 sec
     gradient                   ...        0 min,  0.276 sec
 * total energy  :  -266.7356151 Eh     change       -0.5963085E-04 Eh
   gradient norm :     0.0079980 Eh/α   predicted    -0.7877319E-04 (  32.10%)
   displ. norm   :     0.1373578 α      lambda       -0.1446874E-03
   maximum displ.:     0.0738375 α      in ANC's #14, #6, #7, ...

........................................................................
.............................. CYCLE   42 ..............................
........................................................................
   1   -270.4277206 -0.270428E+03  0.653E-03    1.04       0.0  T
   2   -270.4277236 -0.304247E-05  0.346E-03    1.04       2.5  T
   3   -270.4277230  0.632286E-06  0.260E-03    1.04       3.3  T
   4   -270.4277238 -0.742745E-06  0.158E-03    1.04       5.4  T
   5   -270.4277245 -0.791216E-06  0.324E-04    1.04      26.5  T
   6   -270.4277246 -0.279626E-07  0.145E-04    1.04      59.2  T
   7   -270.4277246 -0.102739E-07  0.368E-05    1.04     232.8  T
     SCC iter.                  ...        0 min,  0.326 sec
     gradient                   ...        0 min,  0.278 sec
 * total energy  :  -266.7356944 Eh     change       -0.7929756E-04 Eh
   gradient norm :     0.0052049 Eh/α   predicted    -0.7370986E-04 (  -7.05%)
   displ. norm   :     0.1923619 α      lambda       -0.8494411E-04
   maximum displ.:     0.1094746 α      in ANC's #14, #6, #7, ...
 * RMSD in coord.:     0.4391906 α      energy gain  -0.4533761E-02 Eh

generating ANC from model Hessian ...
Using Lindh-Hessian (1995)
 Shifting diagonal of input Hessian by    1.0004248314732424E-002
 Lowest  eigenvalues of input Hessian
    0.010000    0.010003    0.000000    0.000000    0.000000    0.000000
    0.000000    0.000000    0.010016    0.010018    0.010068    0.010073
    0.010144    0.010180    0.010199    0.010357    0.010375    0.010392
 Highest eigenvalues
    2.817071    2.990294    3.583364    3.585688    3.597315    3.597340


........................................................................
.............................. CYCLE   43 ..............................
........................................................................
   1   -270.4255149 -0.270426E+03  0.428E-03    1.04       0.0  T
   2   -270.4255178 -0.286852E-05  0.190E-03    1.04       4.5  T
   3   -270.4255180 -0.208097E-06  0.112E-03    1.04       7.7  T
   4   -270.4255178  0.176911E-06  0.102E-03    1.04       8.4  T
   5   -270.4255182 -0.347046E-06  0.160E-04    1.04      53.7  T
   6   -270.4255182 -0.313321E-08  0.623E-05    1.04     137.7  T
     SCC iter.                  ...        0 min,  0.283 sec
     gradient                   ...        0 min,  0.275 sec
 * total energy  :  -266.7357560 Eh     change       -0.6158703E-04 Eh
   gradient norm :     0.0048698 Eh/α   predicted     0.0000000E+00 (-100.00%)
   displ. norm   :     0.0390876 α      lambda       -0.4237211E-04
   maximum displ.:     0.0213725 α      in ANC's #20, #17, #42, ...

........................................................................
.............................. CYCLE   44 ..............................
........................................................................
   1   -270.4267968 -0.270427E+03  0.167E-03    1.04       0.0  T
   2   -270.4267969 -0.921386E-07  0.100E-03    1.04       8.6  T
   3   -270.4267969  0.673242E-07  0.782E-04    1.04      11.0  T
   4   -270.4267970 -0.154067E-06  0.329E-04    1.04      26.1  T
   5   -270.4267970 -0.255636E-07  0.126E-04    1.04      68.2  T
   6   -270.4267970 -0.553587E-08  0.333E-05    1.04     257.7  T
     SCC iter.                  ...        0 min,  0.280 sec
     gradient                   ...        0 min,  0.277 sec
 * total energy  :  -266.7357950 Eh     change       -0.3902521E-04 Eh
   gradient norm :     0.0024688 Eh/α   predicted    -0.2411925E-04 ( -38.20%)
   displ. norm   :     0.1452181 α      lambda       -0.1118002E-03
   maximum displ.:     0.0803491 α      in ANC's #20, #17, #22, ...

........................................................................
.............................. CYCLE   45 ..............................
........................................................................
   1   -270.4289825 -0.270429E+03  0.405E-03    1.04       0.0  T
   2   -270.4289831 -0.583418E-06  0.248E-03    1.04       3.5  T
   3   -270.4289831  0.495024E-07  0.191E-03    1.04       4.5  T
   4   -270.4289839 -0.828910E-06  0.839E-04    1.04      10.2  T
   5   -270.4289840 -0.141943E-06  0.341E-04    1.04      25.1  T
   6   -270.4289841 -0.402586E-07  0.850E-05    1.04     100.9  T
   7   -270.4289841 -0.305670E-08  0.346E-05    1.04     247.8  T
     SCC iter.                  ...        0 min,  0.326 sec
     gradient                   ...        0 min,  0.275 sec
 * total energy  :  -266.7358407 Eh     change       -0.4571693E-04 Eh
   gradient norm :     0.0050182 Eh/α   predicted    -0.5708461E-04 (  24.87%)
   displ. norm   :     0.2182455 α      lambda       -0.1718225E-03
   maximum displ.:     0.1189743 α      in ANC's #20, #17, #22, ...

........................................................................
.............................. CYCLE   46 ..............................
........................................................................
   1   -270.4297894 -0.270430E+03  0.386E-03    1.04       0.0  T
   2   -270.4297902 -0.868249E-06  0.236E-03    1.04       3.6  T
   3   -270.4297909 -0.714492E-06  0.162E-03    1.04       5.3  T
   4   -270.4297915 -0.552295E-06  0.807E-04    1.04      10.6  T
   5   -270.4297916 -0.882279E-07  0.361E-04    1.04      23.8  T
   6   -270.4297916 -0.423320E-07  0.967E-05    1.04      88.6  T
   7   -270.4297916 -0.400331E-08  0.326E-05    1.04     263.3  T
     SCC iter.                  ...        0 min,  0.326 sec
     gradient                   ...        0 min,  0.275 sec
 * total energy  :  -266.7358407 Eh     change        0.1240500E-07 Eh
   gradient norm :     0.0098622 Eh/α   predicted    -0.9000451E-04 (*******%)
   displ. norm   :     0.0408730 α      lambda       -0.1514343E-03
   maximum displ.:     0.0199082 α      in ANC's #16, #36, #38, ...

........................................................................
.............................. CYCLE   47 ..............................
........................................................................
   1   -270.4281927 -0.270428E+03  0.236E-03    1.04       0.0  T
   2   -270.4281930 -0.280739E-06  0.132E-03    1.04       6.5  T
   3   -270.4281929  0.103826E-06  0.940E-04    1.04       9.1  T
   4   -270.4281930 -0.148178E-06  0.509E-04    1.04      16.9  T
   5   -270.4281931 -0.864688E-07  0.144E-04    1.04      59.4  T
   6   -270.4281931 -0.678841E-08  0.539E-05    1.04     159.1  T
     SCC iter.                  ...        0 min,  0.280 sec
     gradient                   ...        0 min,  0.275 sec
 * total energy  :  -266.7359398 Eh     change       -0.9909904E-04 Eh
   gradient norm :     0.0051820 Eh/α   predicted    -0.7584412E-04 ( -23.47%)
   displ. norm   :     0.1107281 α      lambda       -0.8765969E-04
   maximum displ.:     0.0600897 α      in ANC's #20, #17, #42, ...

........................................................................
.............................. CYCLE   48 ..............................
........................................................................
   1   -270.4263027 -0.270426E+03  0.263E-03    1.04       0.0  T
   2   -270.4263034 -0.648000E-06  0.135E-03    1.04       6.3  T
   3   -270.4263034 -0.198655E-07  0.829E-04    1.04      10.3  T
   4   -270.4263033  0.105161E-06  0.646E-04    1.04      13.3  T
   5   -270.4263034 -0.172867E-06  0.121E-04    1.04      70.9  T
   6   -270.4263034 -0.376019E-08  0.590E-05    1.04     145.4  T
     SCC iter.                  ...        0 min,  0.280 sec
     gradient                   ...        0 min,  0.275 sec
 * total energy  :  -266.7360067 Eh     change       -0.6694280E-04 Eh
   gradient norm :     0.0021349 Eh/α   predicted    -0.4436882E-04 ( -33.72%)
   displ. norm   :     0.2962433 α      lambda       -0.1278365E-03
   maximum displ.:     0.1686429 α      in ANC's #20, #17, #42, ...

........................................................................
.............................. CYCLE   49 ..............................
........................................................................
   1   -270.4224860 -0.270422E+03  0.613E-03    1.04       0.0  T
   2   -270.4224896 -0.364349E-05  0.319E-03    1.04       2.7  T
   3   -270.4224898 -0.158050E-06  0.199E-03    1.04       4.3  T
   4   -270.4224893  0.534302E-06  0.152E-03    1.04       5.7  T
   5   -270.4224901 -0.878898E-06  0.357E-04    1.04      24.0  T
   6   -270.4224902 -0.384809E-07  0.115E-04    1.04      74.8  T
   7   -270.4224902 -0.481884E-08  0.536E-05    1.04     160.1  T
     SCC iter.                  ...        0 min,  0.326 sec
     gradient                   ...        0 min,  0.276 sec
 * total energy  :  -266.7360892 Eh     change       -0.8244778E-04 Eh
   gradient norm :     0.0062413 Eh/α   predicted    -0.6952974E-04 ( -15.67%)
   displ. norm   :     0.1828954 α      lambda       -0.6332040E-04
   maximum displ.:     0.1016796 α      in ANC's #20, #17, #42, ...

........................................................................
.............................. CYCLE   50 ..............................
........................................................................
   1   -270.4216546 -0.270422E+03  0.267E-03    1.04       0.0  T
   2   -270.4216557 -0.101794E-05  0.130E-03    1.04       6.6  T
   3   -270.4216557 -0.905798E-07  0.780E-04    1.04      11.0  T
   4   -270.4216557  0.794415E-07  0.658E-04    1.04      13.0  T
   5   -270.4216558 -0.137863E-06  0.168E-04    1.04      51.0  T
   6   -270.4216558 -0.804425E-08  0.503E-05    1.04     170.5  T
     SCC iter.                  ...        0 min,  0.280 sec
     gradient                   ...        0 min,  0.276 sec
 * total energy  :  -266.7361382 Eh     change       -0.4903969E-04 Eh
   gradient norm :     0.0076690 Eh/α   predicted    -0.3271993E-04 ( -33.28%)
   displ. norm   :     0.2407602 α      lambda       -0.1248158E-03
   maximum displ.:     0.1329064 α      in ANC's #20, #17, #42, ...

........................................................................
.............................. CYCLE   51 ..............................
........................................................................
   1   -270.4230635 -0.270423E+03  0.273E-03    1.04       0.0  T
   2   -270.4230649 -0.137787E-05  0.117E-03    1.04       7.3  T
   3   -270.4230651 -0.156539E-06  0.641E-04    1.04      13.4  T
   4   -270.4230651 -0.515735E-08  0.484E-04    1.04      17.7  T
   5   -270.4230651 -0.642638E-07  0.141E-04    1.04      60.9  T
   6   -270.4230651 -0.275526E-08  0.657E-05    1.04     130.5  T
     SCC iter.                  ...        0 min,  0.280 sec
     gradient                   ...        0 min,  0.277 sec
 * total energy  :  -266.7362274 Eh     change       -0.8923073E-04 Eh
   gradient norm :     0.0056274 Eh/α   predicted    -0.6602683E-04 ( -26.00%)
   displ. norm   :     0.2191659 α      lambda       -0.8880896E-04
   maximum displ.:     0.1184204 α      in ANC's #20, #17, #42, ...

........................................................................
.............................. CYCLE   52 ..............................
........................................................................
   1   -270.4243358 -0.270424E+03  0.246E-03    1.04       0.0  T
   2   -270.4243368 -0.988818E-06  0.111E-03    1.04       7.8  T
   3   -270.4243369 -0.116976E-06  0.622E-04    1.04      13.8  T
   4   -270.4243369  0.354154E-07  0.506E-04    1.04      17.0  T
   5   -270.4243370 -0.825572E-07  0.125E-04    1.04      68.8  T
   6   -270.4243370 -0.341061E-08  0.599E-05    1.04     143.1  T
     SCC iter.                  ...        0 min,  0.280 sec
     gradient                   ...        0 min,  0.275 sec
 * total energy  :  -266.7362949 Eh     change       -0.6745528E-04 Eh
   gradient norm :     0.0038561 Eh/α   predicted    -0.4653920E-04 ( -31.01%)
   displ. norm   :     0.2498836 α      lambda       -0.8647284E-04
   maximum displ.:     0.1274024 α      in ANC's #20, #17, #42, ...

........................................................................
.............................. CYCLE   53 ..............................
........................................................................
   1   -270.4251807 -0.270425E+03  0.256E-03    1.04       0.0  T
   2   -270.4251819 -0.118667E-05  0.106E-03    1.04       8.1  T
   3   -270.4251821 -0.164925E-06  0.524E-04    1.04      16.4  T
   4   -270.4251821  0.666893E-08  0.409E-04    1.04      21.0  T
   5   -270.4251821 -0.499994E-07  0.116E-04    1.04      74.0  T
   6   -270.4251821 -0.295432E-08  0.538E-05    1.04     159.4  T
     SCC iter.                  ...        0 min,  0.280 sec
     gradient                   ...        0 min,  0.275 sec
 * total energy  :  -266.7363612 Eh     change       -0.6627785E-04 Eh
   gradient norm :     0.0030932 Eh/α   predicted    -0.4593722E-04 ( -30.69%)
   displ. norm   :     0.2632367 α      lambda       -0.8688471E-04
   maximum displ.:     0.1192575 α      in ANC's #20, #42, #6, ...

........................................................................
.............................. CYCLE   54 ..............................
........................................................................
   1   -270.4257604 -0.270426E+03  0.298E-03    1.04       0.0  T
   2   -270.4257620 -0.158593E-05  0.109E-03    1.04       7.9  T
   3   -270.4257622 -0.180855E-06  0.487E-04    1.04      17.6  T
   4   -270.4257621  0.307866E-07  0.402E-04    1.04      21.3  T
   5   -270.4257622 -0.554293E-07  0.108E-04    1.04      79.5  T
   6   -270.4257622 -0.272394E-08  0.448E-05    1.04     191.3  T
     SCC iter.                  ...        0 min,  0.280 sec
     gradient                   ...        0 min,  0.274 sec
 * total energy  :  -266.7364290 Eh     change       -0.6786591E-04 Eh
   gradient norm :     0.0031025 Eh/α   predicted    -0.4645500E-04 ( -31.55%)
   displ. norm   :     0.3086758 α      lambda       -0.9730516E-04
   maximum displ.:     0.1423902 α      in ANC's #42, #6, #20, ...

........................................................................
.............................. CYCLE   55 ..............................
........................................................................
   1   -270.4253034 -0.270425E+03  0.418E-03    1.04       0.0  T
   2   -270.4253068 -0.338762E-05  0.144E-03    1.04       5.9  T
   3   -270.4253071 -0.321996E-06  0.603E-04    1.04      14.2  T
   4   -270.4253070  0.344741E-07  0.406E-04    1.04      21.1  T
   5   -270.4253071 -0.296421E-07  0.234E-04    1.04      36.6  T
   6   -270.4253071 -0.196008E-07  0.369E-05    1.04     232.4  T
   7   -270.4253071 -0.135230E-09  0.240E-05    1.04     357.4  T
     SCC iter.                  ...        0 min,  0.326 sec
     gradient                   ...        0 min,  0.276 sec
 * total energy  :  -266.7365066 Eh     change       -0.7757773E-04 Eh
   gradient norm :     0.0038823 Eh/α   predicted    -0.5329170E-04 ( -31.31%)
   displ. norm   :     0.3760189 α      lambda       -0.1678056E-03
   maximum displ.:     0.1858356 α      in ANC's #6, #18, #42, ...

........................................................................
.............................. CYCLE   56 ..............................
........................................................................
   1   -270.4297129 -0.270430E+03  0.100E-02    1.04       0.0  T
   2   -270.4297167 -0.385455E-05  0.619E-03    1.04       1.4  T
   3   -270.4297142  0.249631E-05  0.503E-03    1.04       1.7  T
   4   -270.4297200 -0.573528E-05  0.219E-03    1.04       3.9  T
   5   -270.4297211 -0.114400E-05  0.399E-04    1.04      21.5  T
   6   -270.4297212 -0.369672E-07  0.181E-04    1.04      47.4  T
   7   -270.4297212 -0.113235E-07  0.803E-05    1.04     106.9  T
     SCC iter.                  ...        0 min,  0.326 sec
     gradient                   ...        0 min,  0.274 sec
 * total energy  :  -266.7365559 Eh     change       -0.4925442E-04 Eh
   gradient norm :     0.0098420 Eh/α   predicted    -0.9577013E-04 (  94.44%)
   displ. norm   :     0.5811504 α      lambda       -0.2760025E-03
   maximum displ.:     0.2807234 α      in ANC's #42, #6, #20, ...

........................................................................
.............................. CYCLE   57 ..............................
........................................................................
   1   -270.4192051 -0.270419E+03  0.219E-02    1.04       0.0  T
   2   -270.4192320 -0.268342E-04  0.128E-02    1.04       1.0  T
   3   -270.4192213  0.106599E-04  0.978E-03    1.04       1.0  T
   4   -270.4192349 -0.135562E-04  0.533E-03    1.04       1.6  T
   5   -270.4192433 -0.844296E-05  0.116E-03    1.04       7.4  T
   6   -270.4192437 -0.393949E-06  0.368E-04    1.04      23.3  T
   7   -270.4192437 -0.337611E-07  0.175E-04    1.04      49.1  T
   8   -270.4192437 -0.106292E-07  0.550E-05    1.04     156.0  T
     SCC iter.                  ...        0 min,  0.372 sec
     gradient                   ...        0 min,  0.275 sec
 * total energy  :  -266.7365388 Eh     change        0.1705427E-04 Eh
   gradient norm :     0.0149188 Eh/α   predicted    -0.1846135E-03 (*******%)
   displ. norm   :     0.3555100 α      lambda       -0.3935233E-03
   maximum displ.:     0.1639121 α      in ANC's #42, #6, #20, ...

........................................................................
.............................. CYCLE   58 ..............................
........................................................................
   1   -270.4261932 -0.270426E+03  0.138E-02    1.04       0.0  T
   2   -270.4262000 -0.679045E-05  0.819E-03    1.04       1.0  T
   3   -270.4261913  0.868212E-05  0.708E-03    1.04       1.2  T
   4   -270.4262038 -0.124820E-04  0.267E-03    1.04       3.2  T
   5   -270.4262054 -0.163267E-05  0.640E-04    1.04      13.4  T
   6   -270.4262056 -0.126721E-06  0.167E-04    1.04      51.4  T
   7   -270.4262056 -0.557606E-08  0.776E-05    1.04     110.5  T
     SCC iter.                  ...        0 min,  0.326 sec
     gradient                   ...        0 min,  0.275 sec
 * total energy  :  -266.7366950 Eh     change       -0.1561948E-03 Eh
   gradient norm :     0.0034850 Eh/α   predicted    -0.2216335E-03 (  41.90%)
   displ. norm   :     0.0933406 α      lambda       -0.4183561E-04
   maximum displ.:     0.0478616 α      in ANC's #6, #18, #42, ...

........................................................................
.............................. CYCLE   59 ..............................
........................................................................
   1   -270.4263824 -0.270426E+03  0.173E-03    1.04       0.0  T
   2   -270.4263830 -0.536647E-06  0.816E-04    1.04      10.5  T
   3   -270.4263831 -0.119895E-06  0.436E-04    1.04      19.7  T
   4   -270.4263831 -0.652072E-07  0.192E-04    1.04      44.6  T
   5   -270.4263831 -0.412638E-08  0.777E-05    1.04     110.3  T
     SCC iter.                  ...        0 min,  0.234 sec
     gradient                   ...        0 min,  0.275 sec
 * total energy  :  -266.7367326 Eh     change       -0.3761424E-04 Eh
   gradient norm :     0.0024390 Eh/α   predicted    -0.2109916E-04 ( -43.91%)
   displ. norm   :     0.4127744 α      lambda       -0.1573103E-03
   maximum displ.:     0.2114120 α      in ANC's #6, #18, #42, ...

........................................................................
.............................. CYCLE   60 ..............................
........................................................................
   1   -270.4248573 -0.270425E+03  0.825E-03    1.04       0.0  T
   2   -270.4248695 -0.122319E-04  0.352E-03    1.04       2.4  T
   3   -270.4248711 -0.156483E-05  0.185E-03    1.04       4.6  T
   4   -270.4248711  0.163749E-07  0.146E-03    1.04       5.9  T
[...]
                            38 C    0.106
    32   6 C    3.989 --    31 C    1.451    33 C    1.407    60 H    0.967
                            39 C    0.106
    33   6 C    3.929 --    38 C    1.407    32 C    1.407    34 S    0.754
    34  16 S    5.265 --    37 O    1.721    35 O    1.718    36 O    1.013
                            33 C    0.754
    35   8 O    2.077 --    34 S    1.718    37 O    0.139
    36   8 O    2.087 --    34 S    1.013    61 H    0.827
    37   8 O    2.079 --    34 S    1.721    35 O    0.139
    38   6 C    3.989 --    39 C    1.450    33 C    1.407    62 H    0.967
                            31 C    0.106
    39   6 C    3.986 --    38 C    1.450    30 C    1.390    63 H    0.971
                            32 C    0.106
    40   6 C    3.929 --    29 C    1.321    44 N    1.318    41 C    1.116
    41   6 C    3.967 --    42 C    1.725    40 C    1.116    64 H    0.973
    42   6 C    3.966 --    41 C    1.725    43 C    1.115    65 H    0.975
    43   6 C    3.927 --     1 C    1.367    44 N    1.300    42 C    1.115
    44   7 N    3.012 --    40 C    1.318    43 C    1.300
    45   1 H    1.001 --     1 C    0.970
    46   1 H    0.997 --     3 C    0.976
    47   1 H    1.003 --     4 C    0.974
    48   1 H    0.986 --     6 N    0.873
    49   1 H    1.003 --     9 C    0.971
    50   1 H    0.999 --    10 C    0.967
    51   1 H    0.854 --    14 O    0.828
    52   1 H    1.000 --    16 C    0.967
    53   1 H    1.003 --    17 C    0.971
    54   1 H    1.004 --    19 C    0.973
    55   1 H    1.002 --    20 C    0.974
    56   1 H    1.001 --    25 C    0.974
    57   1 H    1.003 --    26 C    0.974
    58   1 H    0.987 --    28 N    0.872
    59   1 H    1.003 --    31 C    0.971
    60   1 H    0.999 --    32 C    0.967
    61   1 H    0.854 --    36 O    0.827
    62   1 H    0.999 --    38 C    0.967
    63   1 H    1.003 --    39 C    0.971
    64   1 H    1.004 --    41 C    0.973
    65   1 H    0.998 --    42 C    0.975
    66   6 C    3.927 --   108 C    1.367    67 C    1.347   110 H    0.970
    67   6 C    3.900 --    66 C    1.347    68 C    1.228    71 N    1.169
    68   6 C    3.954 --    69 C    1.597    67 C    1.228   111 H    0.976
    69   6 C    3.959 --    68 C    1.597    70 C    1.232   112 H    0.974
    70   6 C    3.898 --    72 C    1.303    69 C    1.232    71 N    1.179
    71   7 N    3.470 --    70 C    1.179    67 C    1.169   113 H    0.873
    72   6 C    3.937 --    83 C    1.333    70 C    1.303    73 C    1.031
    73   6 C    3.986 --    74 C    1.390    82 C    1.390    72 C    1.031
    74   6 C    3.986 --    75 C    1.450    73 C    1.390   114 H    0.971
                            81 C    0.105
    75   6 C    3.989 --    74 C    1.450    76 C    1.407   115 H    0.967
                            82 C    0.106
    76   6 C    3.929 --    81 C    1.407    75 C    1.407    77 S    0.754
    77  16 S    5.264 --    80 O    1.723    78 O    1.716    79 O    1.012
                            76 C    0.754
    78   8 O    2.075 --    77 S    1.716    80 O    0.139
    79   8 O    2.086 --    77 S    1.012   116 H    0.828
    80   8 O    2.082 --    77 S    1.723    78 O    0.139
    81   6 C    3.989 --    82 C    1.450    76 C    1.407   117 H    0.967
                            74 C    0.105
    82   6 C    3.987 --    81 C    1.450    73 C    1.390   118 H    0.971
                            75 C    0.106
    83   6 C    3.914 --    72 C    1.333    86 N    1.287    84 C    1.124
    84   6 C    3.965 --    85 C    1.711    83 C    1.124   119 H    0.973
    85   6 C    3.963 --    84 C    1.711    87 C    1.127   120 H    0.974
    86   7 N    3.022 --    87 C    1.343    83 C    1.287
    87   6 C    3.906 --    86 N    1.343    88 C    1.255    85 C    1.127
    88   6 C    3.938 --    87 C    1.255    89 C    1.252   136 C    1.191
    89   6 C    3.883 --    88 C    1.252    90 C    1.248    93 N    1.188
    90   6 C    3.959 --    91 C    1.584    89 C    1.248   121 H    0.974
    91   6 C    3.954 --    90 C    1.584    92 C    1.240   122 H    0.974
    92   6 C    3.899 --    94 C    1.307    91 C    1.240    93 N    1.167
    93   7 N    3.475 --    89 C    1.188    92 C    1.167   123 H    0.872
    94   6 C    3.923 --   105 C    1.321    92 C    1.307    95 C    1.032
    95   6 C    3.986 --   104 C    1.390    96 C    1.390    94 C    1.032
    96   6 C    3.985 --    97 C    1.451    95 C    1.390   124 H    0.971
                           103 C    0.106
    97   6 C    3.989 --    96 C    1.451    98 C    1.407   125 H    0.967
                           104 C    0.106
    98   6 C    3.929 --   103 C    1.407    97 C    1.407    99 S    0.754
    99  16 S    5.265 --   102 O    1.720   100 O    1.718   101 O    1.013
                            98 C    0.754
   100   8 O    2.077 --    99 S    1.718   102 O    0.139
   101   8 O    2.087 --    99 S    1.013   126 H    0.827
   102   8 O    2.079 --    99 S    1.720   100 O    0.139
   103   6 C    3.989 --   104 C    1.450    98 C    1.407   127 H    0.967
                            96 C    0.106
   104   6 C    3.986 --   103 C    1.450    95 C    1.390   128 H    0.971
                            97 C    0.106
   105   6 C    3.929 --    94 C    1.321   109 N    1.318   106 C    1.116
   106   6 C    3.967 --   107 C    1.725   105 C    1.116   129 H    0.973
   107   6 C    3.966 --   106 C    1.725   108 C    1.115   130 H    0.975
   108   6 C    3.927 --    66 C    1.367   109 N    1.300   107 C    1.115
   109   7 N    3.012 --   105 C    1.318   108 C    1.300
   110   1 H    1.001 --    66 C    0.970
   111   1 H    0.997 --    68 C    0.976
   112   1 H    1.003 --    69 C    0.974
   113   1 H    0.986 --    71 N    0.873
   114   1 H    1.003 --    74 C    0.971
   115   1 H    0.999 --    75 C    0.967
   116   1 H    0.854 --    79 O    0.828
   117   1 H    1.000 --    81 C    0.967
   118   1 H    1.003 --    82 C    0.971
   119   1 H    1.004 --    84 C    0.973
   120   1 H    1.002 --    85 C    0.974
   121   1 H    1.001 --    90 C    0.974
   122   1 H    1.003 --    91 C    0.974
   123   1 H    0.987 --    93 N    0.872
   124   1 H    1.003 --    96 C    0.971
   125   1 H    0.999 --    97 C    0.967
   126   1 H    0.854 --   101 O    0.827
   127   1 H    0.999 --   103 C    0.967
   128   1 H    1.003 --   104 C    0.971
   129   1 H    1.004 --   106 C    0.973
   130   1 H    0.998 --   107 C    0.975
   131   6 C    3.925 --   132 C    2.367   135 C    1.336   134 C    0.190
   132   6 C    3.925 --   131 C    2.367   133 C    1.336   136 C    0.190
   133   6 C    3.932 --   134 C    2.448   132 C    1.336
   134   6 C    3.891 --   133 C    2.448    23 C    1.191   131 C    0.190
   135   6 C    3.932 --   136 C    2.448   131 C    1.336
   136   6 C    3.891 --   135 C    2.448    88 C    1.191   132 C    0.190
 ---------------------------------------------------------------------------

Topologies differ in total number of bonds
Writing topology from bond orders to xtbtopo.mol

 dipole moment from electron density (au)
     X       Y       Z   
   0.0031  -0.3421   1.1861  total (Debye):    3.138

           -------------------------------------------------
          |                Geometry Summary                 |
           -------------------------------------------------

      molecular mass/u    :     1315.3906589
   center of mass at/Å    :       22.8641525       0.0048186      -0.0175232
  moments of inertia/u·Å² :        0.4765377E+05   0.8451151E+05   0.1311921E+06
rotational constants/cm⁻¹ :        0.3537523E-03   0.1994714E-03   0.1284958E-03

 * 139 selected distances

     #   Z          #   Z                                           value/Å
     1   6 C        2   6 C                                       1.3887009
     2   6 C        3   6 C                                       1.4234405
     3   6 C        4   6 C                                       1.3661600
     4   6 C        5   6 C                                       1.4245831
     2   6 C        6   7 N                                       1.3664318
     5   6 C        6   7 N                                       1.3655862
     5   6 C        7   6 C                                       1.3993896
     8   6 C        9   6 C                                       1.3972736
     9   6 C       10   6 C                                       1.3851294
    10   6 C       11   6 C                                       1.3855244
    11   6 C       12  16 S                                       1.7531173
    12  16 S       13   8 O                                       1.4337990
    12  16 S       14   8 O                                       1.6249612
    12  16 S       15   8 O                                       1.4327758
    11   6 C       16   6 C                                       1.3853997
     8   6 C       17   6 C                                       1.3972907
    16   6 C       17   6 C                                       1.3850351
     7   6 C       18   6 C                                       1.3972714
    18   6 C       19   6 C                                       1.4521974
    19   6 C       20   6 C                                       1.3489302
    18   6 C       21   7 N                                       1.3609661
    20   6 C       22   6 C                                       1.4502287
    21   7 N       22   6 C                                       1.3484357
    22   6 C       23   6 C                                       1.4095628
    23   6 C       24   6 C                                       1.4079181
    24   6 C       25   6 C                                       1.4200174
    25   6 C       26   6 C                                       1.3673087
    26   6 C       27   6 C                                       1.4225841
    24   6 C       28   7 N                                       1.3629178
    27   6 C       28   7 N                                       1.3693048
    27   6 C       29   6 C                                       1.3992013
    30   6 C       31   6 C                                       1.3974774
    31   6 C       32   6 C                                       1.3849719
    32   6 C       33   6 C                                       1.3855044
    33   6 C       34  16 S                                       1.7531152
    34  16 S       35   8 O                                       1.4334015
    34  16 S       36   8 O                                       1.6238526
    34  16 S       37   8 O                                       1.4330579
    33   6 C       38   6 C                                       1.3854034
    30   6 C       39   6 C                                       1.3973113
    38   6 C       39   6 C                                       1.3851075
    29   6 C       40   6 C                                       1.3988120
    41   6 C       42   6 C                                       1.3478061
     1   6 C       43   6 C                                       1.3884909
    42   6 C       43   6 C                                       1.4526827
    40   6 C       44   7 N                                       1.3537527
    43   6 C       44   7 N                                       1.3557044
     1   6 C       45   1 H                                       1.0852730
     3   6 C       46   1 H                                       1.0782296
     4   6 C       47   1 H                                       1.0779296
     6   7 N       48   1 H                                       1.0145165
     9   6 C       49   1 H                                       1.0838056
    10   6 C       50   1 H                                       1.0827868
    14   8 O       51   1 H                                       0.9649277
    16   6 C       52   1 H                                       1.0827245
    17   6 C       53   1 H                                       1.0836927
    19   6 C       54   1 H                                       1.0778774
    20   6 C       55   1 H                                       1.0781551
    25   6 C       56   1 H                                       1.0779787
    26   6 C       57   1 H                                       1.0777337
    28   7 N       58   1 H                                       1.0146977
    31   6 C       59   1 H                                       1.0838038
    32   6 C       60   1 H                                       1.0827723
    36   8 O       61   1 H                                       0.9649054 (min)
    38   6 C       62   1 H                                       1.0827503
    39   6 C       63   1 H                                       1.0837070
    41   6 C       64   1 H                                       1.0780387
    42   6 C       65   1 H                                       1.0785920
    66   6 C       67   6 C                                       1.3887091
    67   6 C       68   6 C                                       1.4234413
    68   6 C       69   6 C                                       1.3661638
    69   6 C       70   6 C                                       1.4245687
    67   6 C       71   7 N                                       1.3664233
    70   6 C       71   7 N                                       1.3655865
    70   6 C       72   6 C                                       1.3993716
    73   6 C       74   6 C                                       1.3972655
    74   6 C       75   6 C                                       1.3851241
    75   6 C       76   6 C                                       1.3855281
    76   6 C       77  16 S                                       1.7531214 (max)
    77  16 S       78   8 O                                       1.4338022
    77  16 S       79   8 O                                       1.6249477
    77  16 S       80   8 O                                       1.4327749
    76   6 C       81   6 C                                       1.3853961
    73   6 C       82   6 C                                       1.3972609
    81   6 C       82   6 C                                       1.3850498
    72   6 C       83   6 C                                       1.3972213
    83   6 C       84   6 C                                       1.4521866
    84   6 C       85   6 C                                       1.3489224
    83   6 C       86   7 N                                       1.3609916
    85   6 C       87   6 C                                       1.4502386
    86   7 N       87   6 C                                       1.3484001
    87   6 C       88   6 C                                       1.4096043
    88   6 C       89   6 C                                       1.4078934
    89   6 C       90   6 C                                       1.4200309
    90   6 C       91   6 C                                       1.3673100
    91   6 C       92   6 C                                       1.4225964
    89   6 C       93   7 N                                       1.3629347
    92   6 C       93   7 N                                       1.3693090
    92   6 C       94   6 C                                       1.3991924
    95   6 C       96   6 C                                       1.3974758
    96   6 C       97   6 C                                       1.3849640
    97   6 C       98   6 C                                       1.3855071
    98   6 C       99  16 S                                       1.7531198
    99  16 S      100   8 O                                       1.4333783
    99  16 S      101   8 O                                       1.6238930
    99  16 S      102   8 O                                       1.4330809
    98   6 C      103   6 C                                       1.3854084
    95   6 C      104   6 C                                       1.3972999
   103   6 C      104   6 C                                       1.3851284
    94   6 C      105   6 C                                       1.3987981
   106   6 C      107   6 C                                       1.3477989
    66   6 C      108   6 C                                       1.3884840
   107   6 C      108   6 C                                       1.4526928
   105   6 C      109   7 N                                       1.3537529
   108   6 C      109   7 N                                       1.3557124
    66   6 C      110   1 H                                       1.0852707
    68   6 C      111   1 H                                       1.0782298
    69   6 C      112   1 H                                       1.0779304
    71   7 N      113   1 H                                       1.0145181
    74   6 C      114   1 H                                       1.0838064
    75   6 C      115   1 H                                       1.0827876
    79   8 O      116   1 H                                       0.9649287
    81   6 C      117   1 H                                       1.0827282
    82   6 C      118   1 H                                       1.0836968
    84   6 C      119   1 H                                       1.0778800
    85   6 C      120   1 H                                       1.0781441
    90   6 C      121   1 H                                       1.0779849
    91   6 C      122   1 H                                       1.0777362
    93   7 N      123   1 H                                       1.0147044
    96   6 C      124   1 H                                       1.0837973
    97   6 C      125   1 H                                       1.0827664
   101   8 O      126   1 H                                       0.9649125
   103   6 C      127   1 H                                       1.0827494
   104   6 C      128   1 H                                       1.0837048
   106   6 C      129   1 H                                       1.0780419
   107   6 C      130   1 H                                       1.0785936
   131   6 C      132   6 C                                       1.2283076
   133   6 C      134   6 C                                       1.2239924
   135   6 C      136   6 C                                       1.2239838

 * 7 distinct bonds (by element types)

   Z      Z             #   av. dist./Å        max./Å        min./Å
   1 H    6 C          34     1.0809323     1.0852730     1.0777337
   6 C    6 C          65     1.3899943     1.4526928     1.2239838
   1 H    7 N           4     1.0146092     1.0147044     1.0145165
   6 C    7 N          16     1.3603881     1.3693090     1.3484001
   1 H    8 O           4     0.9649186     0.9649287     0.9649054
   6 C   16 S           4     1.7531185     1.7531214     1.7531152
   8 O   16 S          12     1.4969771     1.6249612     1.4327749


optimized geometry written to: xtbopt.xyz


           -------------------------------------------------
          | TOTAL ENERGY             -266.737194152437 Eh   |
          | GRADIENT NORM               0.000663925016 Eh/α |
          | HOMO-LUMO GAP               1.036283905858 eV   |
           -------------------------------------------------

------------------------------------------------------------------------
 * finished run on 2022/07/31 at 16:53:46.770     
------------------------------------------------------------------------
 total:
 * wall-time:     0 d,  0 h,  1 min,  3.028 sec
 *  cpu-time:     0 d,  0 h,  1 min,  2.752 sec
 * ratio c/w:     0.996 speedup
 SCF:
 * wall-time:     0 d,  0 h,  0 min,  1.273 sec
 *  cpu-time:     0 d,  0 h,  0 min,  1.267 sec
 * ratio c/w:     0.995 speedup
 ANC optimizer:
 * wall-time:     0 d,  0 h,  1 min,  1.631 sec
 *  cpu-time:     0 d,  0 h,  1 min,  1.365 sec
 * ratio c/w:     0.996 speedup

