      -----------------------------------------------------------      
     |                   =====================                   |     
     |                           x T B                           |     
     |                   =====================                   |     
     |                         S. Grimme                         |     
     |          Mulliken Center for Theoretical Chemistry        |     
     |                    University of Bonn                     |     
      -----------------------------------------------------------      

   * xtb version 6.5.1 (b24c23e) compiled by 'conda@728c89f4b128' on 2022-07-12

   xtb is free software: you can redistribute it and/or modify it under
   the terms of the GNU Lesser General Public License as published by
   the Free Software Foundation, either version 3 of the License, or
   (at your option) any later version.
   
   xtb is distributed in the hope that it will be useful,
   but WITHOUT ANY WARRANTY; without even the implied warranty of
   MERCHANTABILITY or FITNESS FOR A PARTICULAR PURPOSE.  See the
   GNU Lesser General Public License for more details.
   
   Cite this work as:
   * C. Bannwarth, E. Caldeweyher, S. Ehlert, A. Hansen, P. Pracht,
     J. Seibert, S. Spicher, S. Grimme, WIREs Comput. Mol. Sci., 2020, 11,
     e01493. DOI: 10.1002/wcms.1493
   
   for GFN2-xTB:
   * C. Bannwarth, S. Ehlert and S. Grimme., J. Chem. Theory Comput., 2019,
     15, 1652-1671. DOI: 10.1021/acs.jctc.8b01176
   for GFN1-xTB:
   * S. Grimme, C. Bannwarth, P. Shushkov, J. Chem. Theory Comput., 2017,
     13, 1989-2009. DOI: 10.1021/acs.jctc.7b00118
   for GFN0-xTB:
   * P. Pracht, E. Caldeweyher, S. Ehlert, S. Grimme, ChemRxiv, 2019, preprint.
     DOI: 10.26434/chemrxiv.8326202.v1
   for GFN-FF:
   * S. Spicher and S. Grimme, Angew. Chem. Int. Ed., 2020, 59, 15665-15673.
     DOI: 10.1002/anie.202004239
   
   for ALPB and GBSA implicit solvation:
   * S. Ehlert, M. Stahn, S. Spicher, S. Grimme, J. Chem. Theory Comput.,
     2021, 17, 4250-4261. DOI: 10.1021/acs.jctc.1c00471
   
   for DFT-D4:
   * E. Caldeweyher, C. Bannwarth and S. Grimme, J. Chem. Phys., 2017,
     147, 034112. DOI: 10.1063/1.4993215
   * E. Caldeweyher, S. Ehlert, A. Hansen, H. Neugebauer, S. Spicher,
     C. Bannwarth and S. Grimme, J. Chem. Phys., 2019, 150, 154122.
     DOI: 10.1063/1.5090222
   * E. Caldeweyher, J.-M. Mewes, S. Ehlert and S. Grimme, Phys. Chem. Chem. Phys.
     2020, 22, 8499-8512. DOI: 10.1039/D0CP00502A
   
   for sTDA-xTB:
   * S. Grimme and C. Bannwarth, J. Chem. Phys., 2016, 145, 054103.
     DOI: 10.1063/1.4959605
   
   in the mass-spec context:
   * V. Asgeirsson, C. Bauer and S. Grimme, Chem. Sci., 2017, 8, 4879.
     DOI: 10.1039/c7sc00601b
   * J. Koopman and S. Grimme, ACS Omega 2019, 4, 12, 15120-15133.
     DOI: 10.1021/acsomega.9b02011
   
   for metadynamics refer to:
   * S. Grimme, J. Chem. Theory Comput., 2019, 155, 2847-2862
     DOI: 10.1021/acs.jctc.9b00143
   
   for SPH calculations refer to:
   * S. Spicher and S. Grimme, J. Chem. Theory Comput., 2021, 17, 1701-1714
     DOI: 10.1021/acs.jctc.0c01306
   
   with help from (in alphabetical order)
   P. Atkinson, C. Bannwarth, F. Bohle, G. Brandenburg, E. Caldeweyher
   M. Checinski, S. Dohm, S. Ehlert, S. Ehrlich, I. Gerasimov, C. Hölzer
   A. Katbashev, J. Koopman, C. Lavigne, S. Lehtola, F. März, M. Müller,
   F. Musil, H. Neugebauer, J. Pisarek, C. Plett, P. Pracht, F. Pultar,
   J. Seibert, P. Shushkov, S. Spicher, M. Stahn, M. Steiner, T. Strunk,
   J. Stückrath, T. Rose, and J. Unsleber
   
 * started run on 2022/07/29 at 16:29:11.820     

           -------------------------------------------------
          |                Calculation Setup                |
           -------------------------------------------------

          program call               : xtb Fe_m-CP_C4_2.xyz --gfn 1 --opt -T 48
          hostname                   : cx3-15-15.cx3.hpc.ic.ac.uk
          coordinate file            : Fe_m-CP_C4_2.xyz
          omp threads                :                     1

   ID    Z sym.   atoms
    1   26 Fe     1, 63
    2    6 C      2-6, 8-12, 15-20, 22-27, 29-35, 38-42, 64-68, 70-74, 77-82,
                  84-89, 91-97, 100-104, 125-128
    3    7 N      7, 21, 28, 43, 69, 83, 90, 105
    4    8 O      13, 14, 36, 37, 75, 76, 98, 99
    5    1 H      44-62, 106-124
########################################################################
[WARNING] Please study the warnings concerning your input carefully
-1- prog_main_parseArguments: Unknown option '-T' provided
########################################################################

           -------------------------------------------------
          |                 G F N 1 - x T B                 |
           -------------------------------------------------

        Reference                      10.1021/acs.jctc.7b00118
      * Hamiltonian:
        H0-scaling (s, p, d)           1.850000    2.250000    2.000000
        zeta-weighting                 0.000000
      * Dispersion:
        s8                             2.400000
        a1                             0.630000
        a2                             5.000000
        s9                             0.000000
      * Repulsion:
        kExp                           1.500000
        rExp                           1.000000
      * Coulomb:
        alpha                          2.000000
        third order                    atomic
        anisotropic                    false
      * Halogen bond correction:
        rad-scale                      1.300000
        damping                        0.440000


          ...................................................
          :                      SETUP                      :
          :.................................................:
          :  # basis functions                 448          :
          :  # atomic orbitals                 446          :
          :  # shells                          258          :
          :  # electrons                       430          :
          :  # halogen bonds                     0          :
          :  max. iterations                   250          :
          :  Hamiltonian                  GFN1-xTB          :
          :  restarted?                      false          :
          :  GBSA solvation                  false          :
          :  PC potential                    false          :
          :  electronic temp.          300.0000000     K    :
          :  accuracy                    1.0000000          :
          :  -> integral cutoff          0.2500000E+02      :
          :  -> integral neglect         0.1000000E-07      :
          :  -> SCF convergence          0.1000000E-05 Eh   :
          :  -> wf. convergence          0.2000000E-04 e    :
          :  Broyden damping             0.4000000          :
          ...................................................

 iter      E             dE          RMSdq      gap      omega  full diag
   1   -223.2965564 -0.223297E+03  0.120E+01    0.12       0.0  T
   2   -145.4909545  0.778056E+02  0.127E+01    0.02       1.0  T
   3   -223.7391990 -0.782482E+02  0.816E+00    0.02       1.0  T
   4   -188.3029665  0.354362E+02  0.778E+00    0.06       1.0  T
   5     23.2672094  0.211570E+03  0.128E+01    0.19       1.0  T
   6    -57.8666504 -0.811339E+02  0.107E+01    0.10       1.0  T
   7   -225.7602295 -0.167894E+03  0.554E+00    0.11       1.0  T
   8   -237.7950613 -0.120348E+02  0.317E+00    0.07       1.0  T
   9   -235.9496952  0.184537E+01  0.414E+00    0.06       1.0  T
  10   -240.7302645 -0.478057E+01  0.307E+00    0.56       1.0  T
  11   -236.9214860  0.380878E+01  0.381E+00    0.04       1.0  T
  12   -241.5259455 -0.460446E+01  0.264E+00    0.25       1.0  T
  13   -234.6629720  0.686297E+01  0.404E+00    0.04       1.0  T
  14   -233.4892683  0.117370E+01  0.417E+00    0.07       1.0  T
  15   -234.4177875 -0.928519E+00  0.394E+00    0.06       1.0  T
  16   -238.8343614 -0.441657E+01  0.292E+00    0.00       1.0  T
  17   -241.8886367 -0.305428E+01  0.207E+00    0.08       1.0  T
  18   -243.8862731 -0.199764E+01  0.133E+00    0.05       1.0  T
  19   -243.5953141  0.290959E+00  0.143E+00    0.11       1.0  T
  20   -243.6590796 -0.637655E-01  0.138E+00    0.12       1.0  T
  21   -234.3878810  0.927120E+01  0.396E+00    0.06       1.0  T
  22   -237.9442347 -0.355635E+01  0.324E+00    0.03       1.0  T
  23   -241.7682234 -0.382399E+01  0.220E+00    0.06       1.0  T
  24   -236.2608822  0.550734E+01  0.357E+00    0.04       1.0  T
  25   -242.2186735 -0.595779E+01  0.204E+00    0.08       1.0  T
  26   -243.8906446 -0.167197E+01  0.130E+00    0.09       1.0  T
  27   -243.0344036  0.856241E+00  0.172E+00    0.09       1.0  T
  28   -241.4758106  0.155859E+01  0.231E+00    0.04       1.0  T
  29   -243.6210843 -0.214527E+01  0.145E+00    0.06       1.0  T
  30   -244.6334358 -0.101235E+01  0.743E-01    0.01       1.0  T
  31   -244.3032056  0.330230E+00  0.102E+00    0.05       1.0  T
  32   -244.7418458 -0.438640E+00  0.614E-01    0.05       1.0  T
  33   -244.9388488 -0.197003E+00  0.228E-01    0.03       1.0  T
  34   -244.7718281  0.167021E+00  0.554E-01    0.02       1.0  T
  35   -244.7283419  0.434862E-01  0.624E-01    0.02       1.0  T
  36   -244.3166507  0.411691E+00  0.100E+00    0.04       1.0  T
  37   -244.4544882 -0.137837E+00  0.889E-01    0.05       1.0  T
  38   -244.8016573 -0.347169E+00  0.511E-01    0.03       1.0  T
  39   -244.9329971 -0.131340E+00  0.240E-01    0.01       1.0  T
  40   -244.9596973 -0.267002E-01  0.121E-01    0.01       1.0  T
  41   -244.9594717  0.225627E-03  0.114E-01    0.01       1.0  T
  42   -244.9657821 -0.631035E-02  0.676E-02    0.01       1.0  T
  43   -244.9668987 -0.111666E-02  0.472E-02    0.01       1.0  T
  44   -244.9672865 -0.387808E-03  0.421E-02    0.01       1.0  T
  45   -244.9682926 -0.100609E-02  0.148E-02    0.01       1.0  T
  46   -244.9682788  0.138078E-04  0.149E-02    0.01       1.0  T
  47   -244.9683793 -0.100487E-03  0.807E-03    0.01       1.1  T
  48   -244.9684051 -0.257383E-04  0.436E-03    0.01       2.0  T
  49   -244.9684143 -0.922825E-05  0.189E-03    0.01       4.7  T
  50   -244.9684145 -0.208115E-06  0.180E-03    0.01       4.9  T
  51   -244.9684155 -0.102611E-05  0.127E-03    0.01       7.0  T
  52   -244.9684157 -0.178931E-06  0.107E-03    0.01       8.3  T
  53   -244.9684162 -0.548936E-06  0.556E-04    0.01      15.9  T
  54   -244.9684164 -0.188693E-06  0.133E-04    0.01      66.5  T
  55   -244.9684164 -0.101416E-07  0.571E-05    0.01     154.9  T

   *** convergence criteria satisfied after 55 iterations ***

         #    Occupation            Energy/Eh            Energy/eV
      -------------------------------------------------------------
         1        2.0000           -0.8188361             -22.2817
       ...           ...                  ...                  ...
       209        1.9997           -0.3844662             -10.4619
       210        1.9984           -0.3829760             -10.4213
       211        1.9962           -0.3821272             -10.3982
       212        1.9956           -0.3819896             -10.3945
       213        1.9660           -0.3800295             -10.3411
       214        1.5298           -0.3772949             -10.2667
       215        1.2767           -0.3767139             -10.2509 (HOMO)
       216        1.0849           -0.3763359             -10.2406 (LUMO)
       217        0.1517           -0.3737990             -10.1716
       218        0.0009           -0.3688970             -10.0382
       219                         -0.3384045              -9.2085
       220                         -0.3371020              -9.1730
       ...                                ...                  ...
       446                          7.9285270             215.7462
      -------------------------------------------------------------
                  HL-Gap            0.0003780 Eh            0.0103 eV
             Fermi-level           -0.3761742 Eh          -10.2362 eV

 SCC (total)                   0 d,  0 h,  0 min,  2.855 sec
 SCC setup                      ...        0 min,  0.005 sec (  0.165%)
 Dispersion                     ...        0 min,  0.003 sec (  0.118%)
 classical contributions        ...        0 min,  0.001 sec (  0.048%)
 integral evaluation            ...        0 min,  0.117 sec (  4.103%)
 iterations                     ...        0 min,  2.424 sec ( 84.903%)
 molecular gradient             ...        0 min,  0.294 sec ( 10.311%)
 printout                       ...        0 min,  0.010 sec (  0.351%)

         :::::::::::::::::::::::::::::::::::::::::::::::::::::
         ::                     SUMMARY                     ::
         :::::::::::::::::::::::::::::::::::::::::::::::::::::
         :: total energy            -240.429948008175 Eh    ::
         :: gradient norm              4.102146401427 Eh/a0 ::
         :: HOMO-LUMO gap              0.010286175809 eV    ::
         ::.................................................::
         :: SCC energy              -244.968416444139 Eh    ::
         :: -> electrostatic           0.498163231459 Eh    ::
         :: repulsion energy           4.651976151330 Eh    ::
         :: dispersion energy         -0.113507715365 Eh    ::
         :: halogen bond corr.         0.000000000000 Eh    ::
         :: add. restraining           0.000000000000 Eh    ::
         :: total charge               0.000000000005 e     ::
         :::::::::::::::::::::::::::::::::::::::::::::::::::::

      ----------------------------------------------------------- 
     |                   =====================                   |
     |                        A N C O P T                        |
     |                   =====================                   |
     |               Approximate Normal Coordinate               |
     |                Rational Function Optimizer                |
      ----------------------------------------------------------- 

          ...................................................
          :                      SETUP                      :
          :.................................................:
          :   optimization level            normal          :
          :   max. optcycles                   384          :
          :   ANC micro-cycles                  20          :
          :   degrees of freedom               378          :
          :.................................................:
          :   RF solver                   davidson          :
          :   write xtbopt.log                true          :
          :   linear?                        false          :
          :   energy convergence         0.5000000E-05 Eh   :
          :   grad. convergence          0.1000000E-02 Eh/α :
          :   maximium RF displ.         1.0000000          :
          :   Hlow (freq-cutoff)         0.1000000E-01      :
          :   Hmax (freq-cutoff)         5.0000000          :
          :   S6 in model hess.         20.0000000          :
          ...................................................

generating ANC from model Hessian ...
Using Lindh-Hessian (1995)
 Shifting diagonal of input Hessian by    1.0034124767850466E-002
 Lowest  eigenvalues of input Hessian
    0.010000    0.010024    0.010030    0.000000    0.000000    0.000000
    0.000000    0.000000    0.000000    0.010101    0.010141    0.010161
    0.010237    0.010288    0.010298    0.010393    0.010412    0.010464
 Highest eigenvalues
    2.102873    2.261965    3.525780    3.597770    4.231205    4.523664


........................................................................
.............................. CYCLE    1 ..............................
........................................................................
   1   -244.9684164 -0.244968E+03  0.376E-05    0.01       0.0  T
   2   -244.9683758  0.406839E-04  0.785E-03    0.01       1.1  T
   3   -244.9684162 -0.404867E-04  0.569E-04    0.01      15.5  T
   4   -244.9684161  0.984294E-07  0.715E-04    0.01      12.4  T
   5   -244.9684161  0.856574E-07  0.751E-04    0.01      11.8  T
   6   -244.9684164 -0.370755E-06  0.132E-04    0.01      67.1  T
   7   -244.9684164 -0.959804E-08  0.537E-05    0.01     164.6  T
     SCC iter.                  ...        0 min,  0.310 sec
     gradient                   ...        0 min,  0.303 sec
 * total energy  :  -240.4299480 Eh     change       -0.2264358E-09 Eh
   gradient norm :     4.1021383 Eh/α   predicted     0.0000000E+00 (-100.00%)
   displ. norm   :     0.6262804 α      lambda       -0.2529055E+01
   maximum displ.:     0.5054012 α      in ANC's #378, #377, #356, ...

........................................................................
.............................. CYCLE    2 ..............................
........................................................................
   1   -244.9707396 -0.244971E+03  0.576E-01    0.00       0.0  T
   2   -239.4097142  0.556103E+01  0.314E+00    0.05       1.0  T
   3   -243.3087091 -0.389899E+01  0.164E+00    0.00       1.0  T
   4   -217.6534563  0.256553E+02  0.594E+00    0.22       1.0  T
   5   -241.6686088 -0.240152E+02  0.221E+00    0.11       1.0  T
   6   -244.8152533 -0.314664E+01  0.648E-01    0.04       1.0  T
   7   -243.7483318  0.106692E+01  0.140E+00    0.08       1.0  T
   8   -243.4015211  0.346811E+00  0.156E+00    0.10       1.0  T
   9   -244.9100944 -0.150857E+01  0.514E-01    0.02       1.0  T
  10   -244.9995950 -0.895006E-01  0.343E-01    0.02       1.0  T
  11   -244.9918084  0.778660E-02  0.360E-01    0.02       1.0  T
  12   -245.0481857 -0.563772E-01  0.214E-01    0.01       1.0  T
  13   -244.9321544  0.116031E+00  0.468E-01    0.03       1.0  T
  14   -245.0609100 -0.128756E+00  0.160E-01    0.01       1.0  T
  15   -245.0727120 -0.118020E-01  0.863E-02    0.00       1.0  T
  16   -245.0772073 -0.449527E-02  0.188E-02    0.00       1.0  T
  17   -245.0695887  0.761860E-02  0.108E-01    0.01       1.0  T
  18   -245.0750497 -0.546108E-02  0.597E-02    0.00       1.0  T
  19   -245.0774311 -0.238136E-02  0.599E-03    0.00       1.5  T
  20   -245.0774136  0.174538E-04  0.781E-03    0.00       1.1  T
  21   -245.0774529 -0.392979E-04  0.171E-03    0.00       5.2  T
  22   -245.0774528  0.128969E-06  0.175E-03    0.00       5.1  T
  23   -245.0774535 -0.736740E-06  0.138E-03    0.00       6.4  T
  24   -245.0774548 -0.124032E-05  0.231E-04    0.00      38.3  T
  25   -245.0774548 -0.361283E-07  0.898E-06    0.00     984.3  T
  26   -245.0774548  0.364165E-08  0.740E-05    0.00     119.5  T
     SCC iter.                  ...        0 min,  1.152 sec
     gradient                   ...        0 min,  0.298 sec
 * total energy  :  -241.5264643 Eh     change       -0.1096516E+01 Eh
   gradient norm :     0.5984428 Eh/α   predicted    -0.1760510E+01 (  60.55%)
   displ. norm   :     0.4739082 α      lambda       -0.1933915E+00
   maximum displ.:     0.0950749 α      in ANC's #93, #120, #282, ...

........................................................................
.............................. CYCLE    3 ..............................
........................................................................
   1   -245.1712480 -0.245171E+03  0.226E-01    0.01       0.0  T
   2   -242.3056702  0.286558E+01  0.221E+00    0.05       1.0  T
   3   -245.1949624 -0.288929E+01  0.923E-02    0.01       1.0  T
   4   -241.9441847  0.325078E+01  0.220E+00    0.12       1.0  T
   5   -244.0544354 -0.211025E+01  0.130E+00    0.08       1.0  T
   6   -243.7919695  0.262466E+00  0.143E+00    0.08       1.0  T
   7   -244.3486585 -0.556689E+00  0.112E+00    0.06       1.0  T
   8   -245.1639245 -0.815266E+00  0.223E-01    0.01       1.0  T
   9   -245.1451497  0.187748E-01  0.284E-01    0.02       1.0  T
  10   -245.1966487 -0.514990E-01  0.552E-02    0.00       1.0  T
  11   -245.1825660  0.140827E-01  0.156E-01    0.01       1.0  T
  12   -245.1657116  0.168544E-01  0.222E-01    0.01       1.0  T
  13   -245.1639983  0.171336E-02  0.228E-01    0.01       1.0  T
  14   -245.1655735 -0.157518E-02  0.222E-01    0.01       1.0  T
  15   -245.1979556 -0.323821E-01  0.258E-02    0.00       1.0  T
  16   -245.1983963 -0.440700E-03  0.381E-03    0.00       2.3  T
  17   -245.1983832  0.131223E-04  0.552E-03    0.00       1.6  T
  18   -245.1983857 -0.251772E-05  0.532E-03    0.00       1.7  T
  19   -245.1984030 -0.173113E-04  0.123E-03    0.00       7.2  T
  20   -245.1984038 -0.837498E-06  0.577E-04    0.00      15.3  T
  21   -245.1984041 -0.208612E-06  0.140E-04    0.00      63.3  T
  22   -245.1984040  0.170439E-07  0.212E-04    0.00      41.7  T
  23   -245.1984041 -0.167214E-07  0.140E-04    0.00      63.1  T
     SCC iter.                  ...        0 min,  1.019 sec
     gradient                   ...        0 min,  0.300 sec
 * total energy  :  -241.6544386 Eh     change       -0.1279744E+00 Eh
   gradient norm :     0.3205989 Eh/α   predicted    -0.1184125E+00 (  -7.47%)
   displ. norm   :     0.5914181 α      lambda       -0.1125316E+00
   maximum displ.:     0.1753796 α      in ANC's #120, #93, #103, ...

........................................................................
.............................. CYCLE    4 ..............................
........................................................................
   1   -245.2563440 -0.245256E+03  0.152E-01    0.04       0.0  T
   2   -242.6124938  0.264385E+01  0.219E+00    0.03       1.0  T
   3   -243.4080518 -0.795558E+00  0.170E+00    0.06       1.0  T
   4   -243.9022392 -0.494187E+00  0.148E+00    0.08       1.0  T
   5   -243.0671387  0.835101E+00  0.179E+00    0.06       1.0  T
   6   -245.1105752 -0.204344E+01  0.497E-01    0.02       1.0  T
   7   -245.1030002  0.757493E-02  0.490E-01    0.02       1.0  T
   8   -242.9873019  0.211570E+01  0.186E+00    0.06       1.0  T
   9   -242.6780031  0.309299E+00  0.198E+00    0.07       1.0  T
  10   -243.4492517 -0.771249E+00  0.166E+00    0.04       1.0  T
  11   -244.2428683 -0.793617E+00  0.126E+00    0.02       1.0  T
  12   -244.2941539 -0.512856E-01  0.124E+00    0.01       1.0  T
  13   -244.9732371 -0.679083E+00  0.690E-01    0.02       1.0  T
  14   -245.2467107 -0.273474E+00  0.190E-01    0.03       1.0  T
  15   -245.0119692  0.234742E+00  0.626E-01    0.02       1.0  T
  16   -245.1282202 -0.116251E+00  0.462E-01    0.02       1.0  T
  17   -245.2040265 -0.758064E-01  0.315E-01    0.03       1.0  T
  18   -245.2497242 -0.456977E-01  0.168E-01    0.03       1.0  T
  19   -245.2600454 -0.103211E-01  0.108E-01    0.03       1.0  T
  20   -245.2642533 -0.420798E-02  0.721E-02    0.03       1.0  T
  21   -245.2670770 -0.282364E-02  0.285E-02    0.03       1.0  T
  22   -245.2674769 -0.399939E-03  0.133E-02    0.03       1.0  T
  23   -245.2675938 -0.116868E-03  0.113E-03    0.03       7.8  T
  24   -245.2675925  0.129690E-05  0.180E-03    0.03       4.9  T
  25   -245.2675941 -0.162504E-05  0.841E-04    0.03      10.5  T
  26   -245.2675935  0.600947E-06  0.127E-03    0.03       7.0  T
  27   -245.2675945 -0.947220E-06  0.344E-04    0.03      25.7  T
  28   -245.2675945 -0.126917E-07  0.292E-04    0.03      30.3  T
  29   -245.2675945 -0.538685E-07  0.638E-05    0.03     138.5  T
  30   -245.2675945 -0.848559E-09  0.502E-05    0.03     176.1  T
     SCC iter.                  ...        0 min,  1.328 sec
     gradient                   ...        0 min,  0.297 sec
 * total energy  :  -241.7277132 Eh     change       -0.7327452E-01 Eh
   gradient norm :     0.1653046 Eh/α   predicted    -0.7594629E-01 (   3.65%)
   displ. norm   :     0.5375858 α      lambda       -0.4076611E-01
   maximum displ.:     0.1576539 α      in ANC's #93, #70, #120, ...

........................................................................
.............................. CYCLE    5 ..............................
........................................................................
   1   -245.2960404 -0.245296E+03  0.146E-01    0.08       0.0  T
   2   -242.1064959  0.318954E+01  0.244E+00    0.01       1.0  T
   3   -245.0530522 -0.294656E+01  0.646E-01    0.02       1.0  T
   4   -242.8652301  0.218782E+01  0.192E+00    0.02       1.0  T
   5   -245.2155164 -0.235029E+01  0.387E-01    0.03       1.0  T
   6   -244.6604168  0.555100E+00  0.103E+00    0.06       1.0  T
   7   -245.2952356 -0.634819E+00  0.140E-01    0.05       1.0  T
   8   -245.2636694  0.315662E-01  0.266E-01    0.07       1.0  T
   9   -245.1897093  0.739602E-01  0.424E-01    0.06       1.0  T
  10   -245.1747671  0.149421E-01  0.443E-01    0.06       1.0  T
  11   -245.2971706 -0.122403E+00  0.128E-01    0.07       1.0  T
  12   -245.2917230  0.544755E-02  0.158E-01    0.07       1.0  T
  13   -245.2908915  0.831517E-03  0.159E-01    0.07       1.0  T
  14   -245.2942340 -0.334253E-02  0.138E-01    0.06       1.0  T
  15   -245.3069480 -0.127139E-01  0.207E-02    0.06       1.0  T
  16   -245.3049943  0.195365E-02  0.568E-02    0.06       1.0  T
  17   -245.3069223 -0.192798E-02  0.155E-02    0.06       1.0  T
  18   -245.3069728 -0.504738E-04  0.118E-02    0.06       1.0  T
  19   -245.3070451 -0.722726E-04  0.652E-03    0.06       1.4  T
  20   -245.3070543 -0.924786E-05  0.559E-03    0.06       1.6  T
  21   -245.3070669 -0.125944E-04  0.324E-03    0.06       2.7  T
  22   -245.3070733 -0.640138E-05  0.105E-03    0.06       8.4  T
  23   -245.3070739 -0.564853E-06  0.347E-04    0.06      25.5  T
  24   -245.3070739 -0.785575E-07  0.194E-05    0.06     454.5  T
  25   -245.3070739  0.112763E-08  0.439E-05    0.06     201.2  T
     SCC iter.                  ...        0 min,  1.107 sec
     gradient                   ...        0 min,  0.318 sec
 * total energy  :  -241.7566683 Eh     change       -0.2895519E-01 Eh
   gradient norm :     0.0824679 Eh/α   predicted    -0.2627373E-01 (  -9.26%)
   displ. norm   :     0.5663474 α      lambda       -0.1918860E-01
   maximum displ.:     0.1859841 α      in ANC's #22, #70, #90, ...

........................................................................
.............................. CYCLE    6 ..............................
........................................................................
   1   -245.2968014 -0.245297E+03  0.190E-01    0.11       0.0  T
   2   -241.6346800  0.366212E+01  0.259E+00    0.00       1.0  T
   3   -245.2751629 -0.364048E+01  0.246E-01    0.07       1.0  T
   4   -241.8841828  0.339098E+01  0.226E+00    0.03       1.0  T
   5   -245.2909830 -0.340680E+01  0.191E-01    0.07       1.0  T
   6   -245.2027969  0.881861E-01  0.447E-01    0.02       1.0  T
   7   -245.1857076  0.170894E-01  0.479E-01    0.02       1.0  T
   8   -245.2774915 -0.917840E-01  0.251E-01    0.04       1.0  T
   9   -245.3103242 -0.328327E-01  0.940E-02    0.07       1.0  T
  10   -245.2926809  0.176433E-01  0.186E-01    0.07       1.0  T
  11   -245.3157912 -0.231103E-01  0.114E-02    0.07       1.0  T
  12   -245.3148515  0.939682E-03  0.409E-02    0.08       1.0  T
  13   -245.3157040 -0.852506E-03  0.157E-02    0.07       1.0  T
  14   -245.3158402 -0.136207E-03  0.553E-03    0.07       1.6  T
  15   -245.3158578 -0.176292E-04  0.141E-03    0.07       6.3  T
  16   -245.3158556  0.226507E-05  0.235E-03    0.07       3.8  T
  17   -245.3158587 -0.311432E-05  0.860E-04    0.07      10.3  T
  18   -245.3158584  0.244497E-06  0.989E-04    0.07       8.9  T
  19   -245.3158590 -0.582761E-06  0.245E-04    0.07      36.1  T
  20   -245.3158590 -0.209888E-07  0.147E-04    0.07      60.0  T
  21   -245.3158591 -0.625687E-08  0.110E-04    0.07      80.1  T
     SCC iter.                  ...        0 min,  0.931 sec
     gradient                   ...        0 min,  0.320 sec
 * total energy  :  -241.7708100 Eh     change       -0.1414168E-01 Eh
   gradient norm :     0.0592739 Eh/α   predicted    -0.1267190E-01 ( -10.39%)
   displ. norm   :     0.5675854 α      lambda       -0.1017156E-01
   maximum displ.:     0.2779929 α      in ANC's #22, #70, #35, ...

........................................................................
.............................. CYCLE    7 ..............................
........................................................................
   1   -245.2941724 -0.245294E+03  0.214E-01    0.12       0.0  T
   2   -241.4009162  0.389326E+01  0.267E+00    0.01       1.0  T
   3   -245.2609760 -0.386006E+01  0.302E-01    0.10       1.0  T
   4   -241.9391221  0.332185E+01  0.224E+00    0.02       1.0  T
   5   -245.2956328 -0.335651E+01  0.190E-01    0.12       1.0  T
   6   -245.2863989  0.923390E-02  0.254E-01    0.04       1.0  T
   7   -245.2880303 -0.163148E-02  0.250E-01    0.04       1.0  T
   8   -245.2092270  0.788034E-01  0.403E-01    0.04       1.0  T
   9   -245.3117667 -0.102540E+00  0.100E-01    0.06       1.0  T
  10   -245.3149442 -0.317749E-02  0.658E-02    0.08       1.0  T
  11   -245.3129924  0.195183E-02  0.834E-02    0.07       1.0  T
  12   -245.3175317 -0.453929E-02  0.246E-02    0.08       1.0  T
  13   -245.3174153  0.116406E-03  0.276E-02    0.08       1.0  T
  14   -245.3174519 -0.366026E-04  0.248E-02    0.08       1.0  T
  15   -245.3177790 -0.327122E-03  0.113E-02    0.08       1.0  T
  16   -245.3178414 -0.624374E-04  0.567E-03    0.08       1.6  T
  17   -245.3178464 -0.496550E-05  0.475E-03    0.08       1.9  T
  18   -245.3178459  0.467130E-06  0.469E-03    0.08       1.9  T
  19   -245.3178560 -0.100808E-04  0.237E-03    0.08       3.7  T
  20   -245.3178593 -0.333888E-05  0.670E-04    0.08      13.2  T
  21   -245.3178596 -0.231273E-06  0.148E-04    0.08      59.6  T
  22   -245.3178596  0.200543E-07  0.224E-04    0.08      39.4  T
  23   -245.3178596 -0.224860E-07  0.127E-04    0.08      69.4  T
     SCC iter.                  ...        0 min,  1.017 sec
     gradient                   ...        0 min,  0.300 sec
 * total energy  :  -241.7784648 Eh     change       -0.7654821E-02 Eh
   gradient norm :     0.0415895 Eh/α   predicted    -0.6724185E-02 ( -12.16%)
   displ. norm   :     0.5883246 α      lambda       -0.6179251E-02
   maximum displ.:     0.3757410 α      in ANC's #22, #35, #24, ...

........................................................................
.............................. CYCLE    8 ..............................
........................................................................
   1   -245.2988794 -0.245299E+03  0.174E-01    0.11       0.0  T
   2   -241.7506398  0.354824E+01  0.255E+00    0.01       1.0  T
   3   -245.2556706 -0.350503E+01  0.307E-01    0.11       1.0  T
   4   -242.8493068  0.240636E+01  0.191E+00    0.01       1.0  T
   5   -245.2838803 -0.243457E+01  0.225E-01    0.13       1.0  T
   6   -245.3039577 -0.200774E-01  0.136E-01    0.06       1.0  T
   7   -245.3081060 -0.414829E-02  0.120E-01    0.06       1.0  T
   8   -245.3049041  0.320192E-02  0.128E-01    0.06       1.0  T
   9   -245.3094361 -0.453200E-02  0.975E-02    0.06       1.0  T
  10   -245.3131275 -0.369141E-02  0.389E-02    0.08       1.0  T
  11   -245.3121088  0.101866E-02  0.541E-02    0.08       1.0  T
  12   -245.3138757 -0.176686E-02  0.202E-02    0.08       1.0  T
  13   -245.3140533 -0.177639E-03  0.129E-02    0.08       1.0  T
  14   -245.3140741 -0.207343E-04  0.109E-02    0.08       1.0  T
  15   -245.3140945 -0.204483E-04  0.885E-03    0.08       1.0  T
  16   -245.3141106 -0.161179E-04  0.730E-03    0.08       1.2  T
  17   -245.3141258 -0.151843E-04  0.551E-03    0.08       1.6  T
  18   -245.3141342 -0.842867E-05  0.414E-03    0.08       2.1  T
  19   -245.3141436 -0.932391E-05  0.167E-03    0.08       5.3  T
  20   -245.3141453 -0.174528E-05  0.311E-04    0.08      28.4  T
  21   -245.3141454 -0.503698E-07  0.102E-04    0.08      86.6  T
  22   -245.3141454 -0.337883E-08  0.749E-05    0.08     118.0  T
     SCC iter.                  ...        0 min,  0.975 sec
     gradient                   ...        0 min,  0.301 sec
 * total energy  :  -241.7832081 Eh     change       -0.4743299E-02 Eh
   gradient norm :     0.0284688 Eh/α   predicted    -0.4159026E-02 ( -12.32%)
   displ. norm   :     0.6199079 α      lambda       -0.4268650E-02
   maximum displ.:     0.4552251 α      in ANC's #22, #24, #35, ...

........................................................................
.............................. CYCLE    9 ..............................
........................................................................
   1   -245.3048337 -0.245305E+03  0.118E-01    0.10       0.0  T
   2   -242.2115826  0.309325E+01  0.240E+00    0.00       1.0  T
   3   -245.2897849 -0.307820E+01  0.198E-01    0.12       1.0  T
   4   -241.7313623  0.355842E+01  0.230E+00    0.01       1.0  T
   5   -245.2927703 -0.356141E+01  0.179E-01    0.11       1.0  T
   6   -245.3061300 -0.133597E-01  0.958E-02    0.07       1.0  T
   7   -245.3082995 -0.216956E-02  0.760E-02    0.07       1.0  T
   8   -245.2990907  0.920878E-02  0.142E-01    0.06       1.0  T
   9   -245.3103787 -0.112880E-01  0.462E-02    0.08       1.0  T
  10   -245.3117372 -0.135852E-02  0.349E-03    0.08       2.5  T
  11   -245.3108006  0.936658E-03  0.370E-02    0.08       1.0  T
  12   -245.3115861 -0.785557E-03  0.154E-02    0.08       1.0  T
  13   -245.3117280 -0.141881E-03  0.403E-03    0.08       2.2  T
  14   -245.3117382 -0.102199E-04  0.899E-04    0.08       9.8  T
  15   -245.3117382 -0.558921E-08  0.653E-04    0.08      13.5  T
  16   -245.3117378  0.406892E-06  0.112E-03    0.08       7.9  T
  17   -245.3117383 -0.508857E-06  0.558E-04    0.08      15.9  T
  18   -245.3117385 -0.121004E-06  0.208E-04    0.08      42.4  T
  19   -245.3117385 -0.192605E-07  0.539E-05    0.08     163.9  T
  20   -245.3117385 -0.216110E-08  0.688E-06    0.08    1283.9  T
     SCC iter.                  ...        0 min,  0.890 sec
     gradient                   ...        0 min,  0.301 sec
 * total energy  :  -241.7864292 Eh     change       -0.3221053E-02 Eh
   gradient norm :     0.0179122 Eh/α   predicted    -0.2954517E-02 (  -8.27%)
   displ. norm   :     0.6217922 α      lambda       -0.3247636E-02
   maximum displ.:     0.4691359 α      in ANC's #22, #24, #27, ...

........................................................................
.............................. CYCLE   10 ..............................
........................................................................
   1   -245.3072135 -0.245307E+03  0.465E-02    0.09       0.0  T
   2   -244.6303293  0.676884E+00  0.113E+00    0.01       1.0  T
   3   -245.2623428 -0.632014E+00  0.263E-01    0.09       1.0  T
   4   -245.2617769  0.565960E-03  0.266E-01    0.09       1.0  T
   5   -245.3014948 -0.397179E-01  0.111E-01    0.10       1.0  T
   6   -245.3064918 -0.499696E-02  0.537E-02    0.09       1.0  T
   7   -245.3080864 -0.159469E-02  0.130E-02    0.08       1.0  T
   8   -245.3079558  0.130671E-03  0.211E-02    0.08       1.0  T
   9   -245.3075180  0.437765E-03  0.312E-02    0.08       1.0  T
  10   -245.3079283 -0.410308E-03  0.193E-02    0.08       1.0  T
  11   -245.3081695 -0.241151E-03  0.487E-03    0.08       1.8  T
  12   -245.3081844 -0.149578E-04  0.147E-03    0.08       6.0  T
  13   -245.3081853 -0.912901E-06  0.872E-04    0.08      10.1  T
  14   -245.3081857 -0.336426E-06  0.480E-04    0.08      18.4  T
  15   -245.3081857 -0.310492E-07  0.427E-04    0.08      20.7  T
  16   -245.3081858 -0.685221E-07  0.284E-04    0.08      31.1  T
  17   -245.3081858 -0.377875E-07  0.157E-04    0.08      56.1  T
  18   -245.3081858 -0.141011E-07  0.605E-05    0.08     146.1  T
     SCC iter.                  ...        0 min,  0.796 sec
     gradient                   ...        0 min,  0.303 sec
 * total energy  :  -241.7886506 Eh     change       -0.2221389E-02 Eh
   gradient norm :     0.0147549 Eh/α   predicted    -0.2251636E-02 (   1.36%)
   displ. norm   :     0.5410645 α      lambda       -0.2274287E-02
   maximum displ.:     0.4041058 α      in ANC's #22, #24, #27, ...

........................................................................
.............................. CYCLE   11 ..............................
........................................................................
   1   -245.3049225 -0.245305E+03  0.266E-02    0.09       0.0  T
   2   -244.7396599  0.565263E+00  0.926E-01    0.05       1.0  T
   3   -244.1937819  0.545878E+00  0.129E+00    0.02       1.0  T
   4   -245.3042358 -0.111045E+01  0.437E-02    0.10       1.0  T
   5   -245.2977475  0.648836E-02  0.116E-01    0.07       1.0  T
   6   -245.3049957 -0.724819E-02  0.213E-02    0.09       1.0  T
   7   -245.3047504  0.245306E-03  0.280E-02    0.09       1.0  T
   8   -245.3050685 -0.318178E-03  0.180E-02    0.09       1.0  T
   9   -245.3048996  0.168946E-03  0.239E-02    0.09       1.0  T
  10   -245.3052820 -0.382409E-03  0.313E-03    0.09       2.8  T
  11   -245.3052873 -0.528437E-05  0.110E-03    0.09       8.0  T
  12   -245.3052797  0.759378E-05  0.351E-03    0.09       2.5  T
  13   -245.3052875 -0.776783E-05  0.938E-04    0.09       9.4  T
  14   -245.3052875 -0.165433E-07  0.916E-04    0.09       9.6  T
  15   -245.3052877 -0.234289E-06  0.691E-04    0.09      12.8  T
  16   -245.3052879 -0.223530E-06  0.366E-04    0.09      24.2  T
  17   -245.3052880 -0.723855E-07  0.147E-04    0.09      60.2  T
  18   -245.3052880 -0.130613E-07  0.372E-05    0.09     237.5  T
     SCC iter.                  ...        0 min,  0.798 sec
     gradient                   ...        0 min,  0.299 sec
 * total energy  :  -241.7903277 Eh     change       -0.1677087E-02 Eh
   gradient norm :     0.0137069 Eh/α   predicted    -0.1470050E-02 ( -12.35%)
   displ. norm   :     0.5111914 α      lambda       -0.1615713E-02
   maximum displ.:     0.3740485 α      in ANC's #22, #27, #24, ...

........................................................................
.............................. CYCLE   12 ..............................
........................................................................
   1   -245.2994499 -0.245299E+03  0.565E-02    0.09       0.0  T
   2   -245.1494014  0.150049E+00  0.506E-01    0.15       1.0  T
   3   -244.5698054  0.579596E+00  0.104E+00    0.04       1.0  T
   4   -245.3000744 -0.730269E+00  0.389E-02    0.10       1.0  T
   5   -245.2997733  0.301090E-03  0.463E-02    0.10       1.0  T
   6   -245.3005633 -0.789975E-03  0.286E-02    0.10       1.0  T
   7   -245.3009614 -0.398075E-03  0.129E-02    0.10       1.0  T
   8   -245.3008716  0.897875E-04  0.175E-02    0.10       1.0  T
   9   -245.3010524 -0.180839E-03  0.543E-03    0.10       1.6  T
  10   -245.3010677 -0.152844E-04  0.223E-03    0.10       4.0  T
  11   -245.3010705 -0.277331E-05  0.115E-03    0.10       7.7  T
  12   -245.3010709 -0.464892E-06  0.542E-04    0.10      16.3  T
  13   -245.3010709  0.374235E-07  0.588E-04    0.10      15.0  T
  14   -245.3010710 -0.787034E-07  0.469E-04    0.10      18.8  T
  15   -245.3010711 -0.111183E-06  0.201E-04    0.10      44.0  T
  16   -245.3010711 -0.212650E-07  0.683E-05    0.10     129.5  T
  17   -245.3010711 -0.260619E-08  0.282E-05    0.10     313.9  T
     SCC iter.                  ...        0 min,  0.753 sec
     gradient                   ...        0 min,  0.299 sec
 * total energy  :  -241.7914445 Eh     change       -0.1116856E-02 Eh
   gradient norm :     0.0132755 Eh/α   predicted    -0.1018965E-02 (  -8.76%)
   displ. norm   :     0.4682128 α      lambda       -0.1156700E-02
   maximum displ.:     0.3306217 α      in ANC's #22, #10, #7, ...

........................................................................
.............................. CYCLE   13 ..............................
........................................................................
   1   -245.2969500 -0.245297E+03  0.408E-02    0.10       0.0  T
   2   -245.0977130  0.199237E+00  0.567E-01    0.10       1.0  T
   3   -241.6899577  0.340776E+01  0.231E+00    0.01       1.0  T
   4   -245.2976245 -0.360767E+01  0.177E-02    0.11       1.0  T
   5   -245.2974714  0.153086E-03  0.245E-02    0.10       1.0  T
   6   -245.2975312 -0.598032E-04  0.196E-02    0.11       1.0  T
   7   -245.2976102 -0.790007E-04  0.175E-02    0.10       1.0  T
   8   -245.2976547 -0.445278E-04  0.138E-02    0.11       1.0  T
   9   -245.2977343 -0.796010E-04  0.924E-03    0.11       1.0  T
  10   -245.2977852 -0.509183E-04  0.176E-03    0.11       5.0  T
  11   -245.2977850  0.264747E-06  0.186E-03    0.11       4.8  T
  12   -245.2977856 -0.624717E-06  0.139E-03    0.11       6.3  T
  13   -245.2977868 -0.117441E-05  0.288E-04    0.11      30.7  T
  14   -245.2977867  0.653179E-07  0.432E-04    0.11      20.4  T
  15   -245.2977867 -0.492375E-07  0.340E-04    0.11      26.0  T
  16   -245.2977868 -0.317408E-07  0.239E-04    0.11      37.1  T
  17   -245.2977868 -0.368494E-07  0.175E-05    0.11     505.1  T
  18   -245.2977868 -0.158366E-09  0.905E-06    0.11     976.6  T
     SCC iter.                  ...        0 min,  0.799 sec
     gradient                   ...        0 min,  0.296 sec
 * total energy  :  -241.7922012 Eh     change       -0.7566910E-03 Eh
   gradient norm :     0.0108342 Eh/α   predicted    -0.7051382E-03 (  -6.81%)
   displ. norm   :     0.3431533 α      lambda       -0.5109972E-03
   maximum displ.:     0.2355394 α      in ANC's #22, #10, #7, ...

........................................................................
.............................. CYCLE   14 ..............................
........................................................................
   1   -245.2948445 -0.245295E+03  0.110E-02    0.10       0.0  T
   2   -244.8636161  0.431228E+00  0.816E-01    0.05       1.0  T
   3   -245.1579112 -0.294295E+00  0.457E-01    0.07       1.0  T
   4   -245.2919143 -0.134003E+00  0.710E-02    0.11       1.0  T
   5   -245.2936410 -0.172673E-02  0.481E-02    0.11       1.0  T
   6   -245.2926829  0.958170E-03  0.589E-02    0.11       1.0  T
   7   -245.2947495 -0.206661E-02  0.151E-02    0.10       1.0  T
   8   -245.2948792 -0.129691E-03  0.482E-03    0.10       1.8  T
   9   -245.2948730  0.617397E-05  0.588E-03    0.10       1.5  T
  10   -245.2948874 -0.144326E-04  0.354E-03    0.10       2.5  T
  11   -245.2948926 -0.517877E-05  0.217E-03    0.10       4.1  T
  12   -245.2948838  0.881247E-05  0.420E-03    0.10       2.1  T
  13   -245.2948915 -0.768271E-05  0.250E-03    0.10       3.5  T
  14   -245.2948957 -0.421330E-05  0.188E-04    0.10      47.0  T
  15   -245.2948956  0.513400E-07  0.341E-04    0.10      25.9  T
  16   -245.2948957 -0.169938E-07  0.299E-04    0.10      29.6  T
  17   -245.2948957 -0.534287E-07  0.965E-05    0.10      91.6  T
  18   -245.2948957 -0.612613E-08  0.135E-05    0.10     655.4  T
     SCC iter.                  ...        0 min,  0.797 sec
     gradient                   ...        0 min,  0.297 sec
 * total energy  :  -241.7925969 Eh     change       -0.3956619E-03 Eh
   gradient norm :     0.0081325 Eh/α   predicted    -0.2855872E-03 ( -27.82%)
   displ. norm   :     0.3515624 α      lambda       -0.4117996E-03
   maximum displ.:     0.2134963 α      in ANC's #22, #7, #10, ...

........................................................................
.............................. CYCLE   15 ..............................
........................................................................
   1   -245.2923840 -0.245292E+03  0.177E-02    0.10       0.0  T
   2   -245.0305032  0.261881E+00  0.700E-01    0.03       1.0  T
   3   -245.1175054 -0.870022E-01  0.509E-01    0.07       1.0  T
   4   -245.2914221 -0.173917E+00  0.452E-02    0.10       1.0  T
   5   -245.2916744 -0.252279E-03  0.389E-02    0.10       1.0  T
   6   -245.2920702 -0.395813E-03  0.273E-02    0.10       1.0  T
   7   -245.2925046 -0.434428E-03  0.649E-03    0.10       1.4  T
   8   -245.2924764  0.282078E-04  0.905E-03    0.10       1.0  T
   9   -245.2924923 -0.158225E-04  0.747E-03    0.10       1.2  T
  10   -245.2925230 -0.307897E-04  0.254E-03    0.10       3.5  T
  11   -245.2925208  0.227536E-05  0.306E-03    0.10       2.9  T
  12   -245.2925260 -0.521132E-05  0.128E-03    0.10       6.9  T
  13   -245.2925265 -0.546973E-06  0.921E-04    0.10       9.6  T
  14   -245.2925268 -0.293154E-06  0.614E-04    0.10      14.4  T
  15   -245.2925270 -0.168785E-06  0.241E-04    0.10      36.6  T
  16   -245.2925270 -0.299751E-07  0.563E-05    0.10     157.1  T
  17   -245.2925270 -0.161333E-08  0.113E-05    0.10     779.7  T
     SCC iter.                  ...        0 min,  0.754 sec
     gradient                   ...        0 min,  0.298 sec
 * total energy  :  -241.7929046 Eh     change       -0.3077410E-03 Eh
   gradient norm :     0.0058274 Eh/α   predicted    -0.2313512E-03 ( -24.82%)
   displ. norm   :     0.3268839 α      lambda       -0.2774036E-03
   maximum displ.:     0.1698613 α      in ANC's #7, #10, #22, ...

........................................................................
.............................. CYCLE   16 ..............................
........................................................................
   1   -245.2908921 -0.245291E+03  0.143E-02    0.09       0.0  T
   2   -245.1181982  0.172694E+00  0.573E-01    0.03       1.0  T
   3   -245.2765338 -0.158336E+00  0.146E-01    0.09       1.0  T
   4   -245.2877424 -0.112086E-01  0.704E-02    0.10       1.0  T
   5   -245.2906934 -0.295101E-02  0.236E-02    0.10       1.0  T
   6   -245.2908600 -0.166628E-03  0.148E-02    0.09       1.0  T
   7   -245.2909700 -0.109968E-03  0.582E-03    0.09       1.5  T
   8   -245.2909842 -0.142339E-04  0.248E-03    0.09       3.6  T
   9   -245.2909801  0.408785E-05  0.334E-03    0.09       2.6  T
  10   -245.2909874 -0.721813E-05  0.716E-04    0.09      12.3  T
  11   -245.2909874 -0.909908E-07  0.633E-04    0.09      14.0  T
  12   -245.2909877 -0.264429E-06  0.114E-04    0.09      77.8  T
  13   -245.2909877  0.551177E-08  0.144E-04    0.09      61.3  T
     SCC iter.                  ...        0 min,  0.578 sec
     gradient                   ...        0 min,  0.299 sec
 * total energy  :  -241.7931182 Eh     change       -0.2136018E-03 Eh
   gradient norm :     0.0057339 Eh/α   predicted    -0.1535262E-03 ( -28.13%)
   displ. norm   :     0.3126605 α      lambda       -0.2403229E-03
   maximum displ.:     0.1763561 α      in ANC's #7, #10, #22, ...

........................................................................
.............................. CYCLE   17 ..............................
........................................................................
   1   -245.2903813 -0.245290E+03  0.359E-03    0.09       0.0  T
   2   -245.2849447  0.543665E-02  0.984E-02    0.08       1.0  T
   3   -245.2818928  0.305191E-02  0.112E-01    0.09       1.0  T
   4   -245.2902870 -0.839421E-02  0.129E-02    0.09       1.0  T
   5   -245.2903617 -0.747327E-04  0.636E-03    0.09       1.4  T
   6   -245.2903679 -0.620995E-05  0.525E-03    0.09       1.7  T
   7   -245.2903786 -0.106800E-04  0.324E-03    0.09       2.7  T
   8   -245.2903816 -0.299822E-05  0.240E-03    0.09       3.7  T
   9   -245.2903849 -0.325091E-05  0.108E-03    0.09       8.2  T
  10   -245.2903856 -0.742282E-06  0.274E-04    0.09      32.3  T
  11   -245.2903856 -0.219391E-07  0.205E-04    0.09      43.2  T
  12   -245.2903856 -0.258407E-07  0.615E-05    0.09     143.8  T
  13   -245.2903857 -0.178252E-08  0.334E-05    0.09     264.4  T
     SCC iter.                  ...        0 min,  0.578 sec
     gradient                   ...        0 min,  0.294 sec
 * total energy  :  -241.7933164 Eh     change       -0.1981909E-03 Eh
   gradient norm :     0.0058749 Eh/α   predicted    -0.1319126E-03 ( -33.44%)
   displ. norm   :     0.3715770 α      lambda       -0.2893270E-03
   maximum displ.:     0.2145710 α      in ANC's #7, #10, #21, ...

........................................................................
.............................. CYCLE   18 ..............................
........................................................................
   1   -245.2905705 -0.245291E+03  0.860E-03    0.09       0.0  T
   2   -245.2695646  0.210059E-01  0.197E-01    0.13       1.0  T
   3   -245.2869730 -0.174084E-01  0.732E-02    0.08       1.0  T
   4   -245.2900346 -0.306156E-02  0.295E-02    0.09       1.0  T
   5   -245.2906016 -0.567011E-03  0.242E-03    0.09       3.6  T
   6   -245.2906012  0.344509E-06  0.256E-03    0.09       3.5  T
   7   -245.2906029 -0.167183E-05  0.198E-03    0.09       4.5  T
   8   -245.2906021  0.834568E-06  0.221E-03    0.09       4.0  T
   9   -245.2906045 -0.246997E-05  0.114E-03    0.09       7.7  T
  10   -245.2906054 -0.853704E-06  0.306E-04    0.09      28.9  T
  11   -245.2906054 -0.424461E-07  0.148E-04    0.09      59.8  T
  12   -245.2906055 -0.103648E-07  0.494E-05    0.09     179.0  T
     SCC iter.                  ...        0 min,  0.529 sec
     gradient                   ...        0 min,  0.301 sec
 * total energy  :  -241.7935512 Eh     change       -0.2348209E-03 Eh
   gradient norm :     0.0060408 Eh/α   predicted    -0.1646432E-03 ( -29.89%)
   displ. norm   :     0.4351679 α      lambda       -0.3187309E-03
   maximum displ.:     0.2529737 α      in ANC's #7, #10, #21, ...

........................................................................
.............................. CYCLE   19 ..............................
........................................................................
   1   -245.2915032 -0.245292E+03  0.235E-02    0.09       0.0  T
   2   -245.2305961  0.609070E-01  0.330E-01    0.15       1.0  T
   3   -245.2891746 -0.585784E-01  0.626E-02    0.09       1.0  T
   4   -245.2875072  0.166738E-02  0.798E-02    0.08       1.0  T
   5   -245.2917357 -0.422853E-02  0.843E-03    0.09       1.0  T
   6   -245.2917603 -0.245967E-04  0.521E-03    0.09       1.7  T
   7   -245.2917680 -0.764479E-05  0.319E-03    0.09       2.8  T
   8   -245.2917718 -0.381260E-05  0.225E-03    0.09       3.9  T
   9   -245.2917692  0.256222E-05  0.291E-03    0.09       3.0  T
  10   -245.2917734 -0.419137E-05  0.149E-03    0.09       5.9  T
  11   -245.2917748 -0.141134E-05  0.474E-04    0.09      18.6  T
  12   -245.2917750 -0.131342E-06  0.132E-04    0.09      67.2  T
  13   -245.2917750 -0.836337E-08  0.372E-05    0.09     237.4  T
     SCC iter.                  ...        0 min,  0.572 sec
     gradient                   ...        0 min,  0.295 sec
 * total energy  :  -241.7937947 Eh     change       -0.2434317E-03 Eh
   gradient norm :     0.0071263 Eh/α   predicted    -0.1895500E-03 ( -22.13%)
   displ. norm   :     0.4348577 α      lambda       -0.2881787E-03
   maximum displ.:     0.2594994 α      in ANC's #7, #10, #18, ...

........................................................................
.............................. CYCLE   20 ..............................
........................................................................
   1   -245.2919511 -0.245292E+03  0.309E-02    0.09       0.0  T
   2   -245.2140402  0.779109E-01  0.371E-01    0.15       1.0  T
   3   -245.2404886 -0.264484E-01  0.277E-01    0.08       1.0  T
   4   -245.2909719 -0.504833E-01  0.472E-02    0.09       1.0  T
   5   -245.2922103 -0.123847E-02  0.195E-02    0.10       1.0  T
   6   -245.2923954 -0.185062E-03  0.739E-03    0.10       1.2  T
   7   -245.2924038 -0.843838E-05  0.539E-03    0.09       1.6  T
   8   -245.2924064 -0.254713E-05  0.525E-03    0.09       1.7  T
   9   -245.2924226 -0.162206E-04  0.152E-03    0.09       5.8  T
  10   -245.2924225  0.907858E-07  0.154E-03    0.09       5.7  T
  11   -245.2924240 -0.151442E-05  0.472E-04    0.09      18.7  T
  12   -245.2924241 -0.971648E-07  0.182E-04    0.09      48.4  T
  13   -245.2924241 -0.986216E-08  0.104E-04    0.09      85.1  T
     SCC iter.                  ...        0 min,  0.578 sec
     gradient                   ...        0 min,  0.302 sec
 * total energy  :  -241.7940190 Eh     change       -0.2243331E-03 Eh
   gradient norm :     0.0078174 Eh/α   predicted    -0.1713391E-03 ( -23.62%)
   displ. norm   :     0.4200201 α      lambda       -0.2563920E-03
   maximum displ.:     0.2558527 α      in ANC's #7, #10, #18, ...
 * RMSD in coord.:     0.5514238 α      energy gain  -0.1364071E+01 Eh

generating ANC from model Hessian ...
Using Lindh-Hessian (1995)
 Shifting diagonal of input Hessian by    1.0027844611405334E-002
 Lowest  eigenvalues of input Hessian
    0.010000    0.010012    0.010021    0.000000    0.000000    0.000000
    0.000000    0.000000    0.000000    0.010069    0.010096    0.010135
    0.010163    0.010248    0.010304    0.010420    0.010438    0.010493
 Highest eigenvalues
    2.389218    2.400739    2.400913    2.401946    2.401989    2.899595


........................................................................
.............................. CYCLE   21 ..............................
........................................................................
   1   -245.2939159 -0.245294E+03  0.253E-02    0.09       0.0  T
   2   -245.2298069  0.641090E-01  0.338E-01    0.15       1.0  T
   3   -245.2651527 -0.353458E-01  0.208E-01    0.09       1.0  T
   4   -245.2929466 -0.277940E-01  0.444E-02    0.09       1.0  T
   5   -245.2941678 -0.122114E-02  0.109E-02    0.10       1.0  T
   6   -245.2942090 -0.412731E-04  0.621E-03    0.10       1.4  T
   7   -245.2942219 -0.128802E-04  0.407E-03    0.10       2.2  T
   8   -245.2942186  0.336192E-05  0.476E-03    0.10       1.9  T
   9   -245.2942319 -0.133733E-04  0.151E-03    0.10       5.8  T
  10   -245.2942326 -0.624096E-06  0.117E-03    0.10       7.6  T
  11   -245.2942334 -0.886063E-06  0.307E-04    0.10      28.8  T
  12   -245.2942335 -0.419354E-07  0.115E-04    0.10      76.7  T
  13   -245.2942335 -0.365523E-08  0.665E-05    0.10     132.9  T
     SCC iter.                  ...        0 min,  0.577 sec
     gradient                   ...        0 min,  0.298 sec
 * total energy  :  -241.7942292 Eh     change       -0.2102413E-03 Eh
   gradient norm :     0.0073076 Eh/α   predicted     0.0000000E+00 (-100.00%)
   displ. norm   :     0.0673465 α      lambda       -0.6907764E-04
   maximum displ.:     0.0299420 α      in ANC's #8, #10, #25, ...

........................................................................
.............................. CYCLE   22 ..............................
........................................................................
   1   -245.2945439 -0.245295E+03  0.873E-03    0.10       0.0  T
   2   -245.2314592  0.630846E-01  0.341E-01    0.06       1.0  T
   3   -245.2486806 -0.172214E-01  0.261E-01    0.09       1.0  T
   4   -245.2942740 -0.455934E-01  0.228E-02    0.10       1.0  T
   5   -245.2944578 -0.183783E-03  0.144E-02    0.10       1.0  T
   6   -245.2945639 -0.106091E-03  0.555E-03    0.10       1.6  T
   7   -245.2945777 -0.138120E-04  0.196E-03    0.10       4.5  T
   8   -245.2945594  0.183409E-04  0.548E-03    0.10       1.6  T
   9   -245.2945783 -0.189135E-04  0.155E-03    0.10       5.7  T
  10   -245.2945779  0.397626E-06  0.169E-03    0.10       5.2  T
  11   -245.2945797 -0.177774E-05  0.476E-04    0.10      18.6  T
  12   -245.2945798 -0.103663E-06  0.276E-04    0.10      32.1  T
  13   -245.2945798 -0.301308E-07  0.168E-04    0.10      52.7  T
  14   -245.2945798 -0.103300E-07  0.975E-05    0.10      90.7  T
     SCC iter.                  ...        0 min,  0.622 sec
     gradient                   ...        0 min,  0.297 sec
 * total energy  :  -241.7943197 Eh     change       -0.9048076E-04 Eh
   gradient norm :     0.0038097 Eh/α   predicted    -0.5982752E-04 ( -33.88%)
   displ. norm   :     0.1494462 α      lambda       -0.1437161E-03
   maximum displ.:     0.0746814 α      in ANC's #8, #10, #25, ...

........................................................................
.............................. CYCLE   23 ..............................
........................................................................
   1   -245.2943719 -0.245294E+03  0.161E-02    0.10       0.0  T
   2   -245.0615817  0.232790E+00  0.660E-01    0.03       1.0  T
   3   -245.1511952 -0.896136E-01  0.461E-01    0.07       1.0  T
   4   -245.2933409 -0.142146E+00  0.445E-02    0.10       1.0  T
   5   -245.2938304 -0.489454E-03  0.341E-02    0.10       1.0  T
   6   -245.2943248 -0.494428E-03  0.170E-02    0.10       1.0  T
   7   -245.2944858 -0.160977E-03  0.391E-03    0.10       2.3  T
   8   -245.2944404  0.454027E-04  0.906E-03    0.10       1.0  T
   9   -245.2944833 -0.429162E-04  0.420E-03    0.10       2.1  T
  10   -245.2944872 -0.393185E-05  0.320E-03    0.10       2.8  T
  11   -245.2944931 -0.590362E-05  0.123E-03    0.10       7.2  T
  12   -245.2944928  0.375132E-06  0.144E-03    0.10       6.2  T
  13   -245.2944939 -0.113144E-05  0.608E-04    0.10      14.5  T
  14   -245.2944940 -0.791701E-07  0.476E-04    0.10      18.6  T
  15   -245.2944941 -0.863535E-07  0.230E-04    0.10      38.3  T
  16   -245.2944941 -0.295290E-07  0.302E-05    0.10     292.6  T
  17   -245.2944941 -0.442384E-09  0.774E-06    0.10    1141.5  T
     SCC iter.                  ...        0 min,  0.754 sec
     gradient                   ...        0 min,  0.298 sec
 * total energy  :  -241.7944126 Eh     change       -0.9288027E-04 Eh
   gradient norm :     0.0029360 Eh/α   predicted    -0.7346556E-04 ( -20.90%)
   displ. norm   :     0.1202373 α      lambda       -0.5891114E-04
   maximum displ.:     0.0667499 α      in ANC's #8, #10, #12, ...

........................................................................
.............................. CYCLE   24 ..............................
........................................................................
   1   -245.2939565 -0.245294E+03  0.585E-03    0.09       0.0  T
   2   -245.2703533  0.236033E-01  0.210E-01    0.06       1.0  T
   3   -245.2845515 -0.141982E-01  0.118E-01    0.09       1.0  T
   4   -245.2937498 -0.919827E-02  0.194E-02    0.10       1.0  T
   5   -245.2939326 -0.182881E-03  0.867E-03    0.10       1.0  T
   6   -245.2939533 -0.206266E-04  0.591E-03    0.09       1.5  T
   7   -245.2939676 -0.142981E-04  0.293E-03    0.09       3.0  T
   8   -245.2939717 -0.411762E-05  0.801E-04    0.09      11.0  T
   9   -245.2939708  0.841838E-06  0.132E-03    0.09       6.7  T
  10   -245.2939719 -0.108331E-05  0.368E-04    0.09      24.0  T
  11   -245.2939719 -0.144918E-07  0.325E-04    0.09      27.2  T
  12   -245.2939720 -0.712077E-07  0.361E-05    0.09     244.6  T
  13   -245.2939720 -0.105416E-09  0.320E-05    0.09     276.2  T
     SCC iter.                  ...        0 min,  0.575 sec
     gradient                   ...        0 min,  0.301 sec
 * total energy  :  -241.7944607 Eh     change       -0.4806056E-04 Eh
   gradient norm :     0.0040334 Eh/α   predicted    -0.2989812E-04 ( -37.79%)
   displ. norm   :     0.1847029 α      lambda       -0.8483875E-04
   maximum displ.:     0.1039512 α      in ANC's #8, #10, #12, ...

........................................................................
.............................. CYCLE   25 ..............................
........................................................................
   1   -245.2932854 -0.245293E+03  0.132E-03    0.09       0.0  T
   2   -245.2928716  0.413822E-03  0.254E-02    0.09       1.0  T
   3   -245.2919807  0.890959E-03  0.438E-02    0.09       1.0  T
   4   -245.2931882 -0.120758E-02  0.137E-02    0.09       1.0  T
   5   -245.2932636 -0.754016E-04  0.623E-03    0.09       1.4  T
   6   -245.2932499  0.137405E-04  0.734E-03    0.09       1.2  T
   7   -245.2932824 -0.324809E-04  0.227E-03    0.09       3.9  T
   8   -245.2932849 -0.254096E-05  0.109E-03    0.09       8.1  T
   9   -245.2932857 -0.794785E-06  0.154E-04    0.09      57.4  T
  10   -245.2932857 -0.147441E-07  0.507E-05    0.09     174.3  T
     SCC iter.                  ...        0 min,  0.444 sec
     gradient                   ...        0 min,  0.298 sec
 * total energy  :  -241.7945306 Eh     change       -0.6995622E-04 Eh
   gradient norm :     0.0037881 Eh/α   predicted    -0.4386787E-04 ( -37.29%)
   displ. norm   :     0.2492321 α      lambda       -0.1009529E-03
   maximum displ.:     0.1428150 α      in ANC's #8, #10, #12, ...

........................................................................
.............................. CYCLE   26 ..............................
........................................................................
   1   -245.2927397 -0.245293E+03  0.642E-03    0.09       0.0  T
   2   -245.2771965  0.155432E-01  0.170E-01    0.12       1.0  T
   3   -245.2893874 -0.121909E-01  0.705E-02    0.09       1.0  T
   4   -245.2927327 -0.334528E-02  0.659E-03    0.09       1.3  T
   5   -245.2927287  0.392850E-05  0.686E-03    0.09       1.3  T
   6   -245.2927147  0.140677E-04  0.825E-03    0.09       1.1  T
   7   -245.2927589 -0.442095E-04  0.186E-03    0.09       4.7  T
   8   -245.2927595 -0.667663E-06  0.159E-03    0.09       5.5  T
   9   -245.2927612 -0.169772E-05  0.261E-04    0.09      33.9  T
  10   -245.2927613 -0.439734E-07  0.584E-05    0.09     151.3  T
  11   -245.2927613 -0.134165E-08  0.361E-05    0.09     244.5  T
     SCC iter.                  ...        0 min,  0.488 sec
     gradient                   ...        0 min,  0.297 sec
 * total energy  :  -241.7946122 Eh     change       -0.8162915E-04 Eh
   gradient norm :     0.0029374 Eh/α   predicted    -0.5362286E-04 ( -34.31%)
   displ. norm   :     0.2836646 α      lambda       -0.9953159E-04
   maximum displ.:     0.1644861 α      in ANC's #8, #10, #12, ...

........................................................................
.............................. CYCLE   27 ..............................
........................................................................
   1   -245.2926698 -0.245293E+03  0.923E-03    0.08       0.0  T
   2   -245.2665882  0.260816E-01  0.220E-01    0.13       1.0  T
   3   -245.2871895 -0.206013E-01  0.901E-02    0.08       1.0  T
   4   -245.2926156 -0.542607E-02  0.122E-02    0.09       1.0  T
   5   -245.2926929 -0.772516E-04  0.543E-03    0.09       1.6  T
   6   -245.2926856  0.723030E-05  0.637E-03    0.09       1.4  T
   7   -245.2927124 -0.267808E-04  0.131E-03    0.09       6.8  T
   8   -245.2927099  0.254015E-05  0.230E-03    0.09       3.8  T
   9   -245.2927134 -0.353160E-05  0.404E-04    0.09      21.9  T
  10   -245.2927135 -0.102632E-06  0.135E-04    0.09      65.3  T
  11   -245.2927135 -0.427332E-08  0.994E-05    0.09      88.9  T
     SCC iter.                  ...        0 min,  0.490 sec
     gradient                   ...        0 min,  0.303 sec
 * total energy  :  -241.7946941 Eh     change       -0.8188831E-04 Eh
   gradient norm :     0.0028993 Eh/α   predicted    -0.5377043E-04 ( -34.34%)
   displ. norm   :     0.3208143 α      lambda       -0.1058241E-03
   maximum displ.:     0.1867337 α      in ANC's #8, #10, #4, ...

........................................................................
.............................. CYCLE   28 ..............................
........................................................................
   1   -245.2930266 -0.245293E+03  0.979E-03    0.08       0.0  T
   2   -245.2642896  0.287370E-01  0.230E-01    0.13       1.0  T
   3   -245.2840923 -0.198027E-01  0.115E-01    0.08       1.0  T
   4   -245.2929093 -0.881705E-02  0.160E-02    0.08       1.0  T
   5   -245.2930733 -0.163932E-03  0.145E-03    0.08       6.1  T
   6   -245.2930688  0.443773E-05  0.295E-03    0.08       3.0  T
   7   -245.2930741 -0.530747E-05  0.110E-03    0.08       8.1  T
   8   -245.2930734  0.729824E-06  0.141E-03    0.08       6.3  T
   9   -245.2930742 -0.767803E-06  0.920E-04    0.08       9.6  T
  10   -245.2930747 -0.541193E-06  0.284E-04    0.08      31.1  T
  11   -245.2930748 -0.308329E-07  0.172E-04    0.08      51.3  T
  12   -245.2930748 -0.120392E-07  0.723E-05    0.08     122.3  T
     SCC iter.                  ...        0 min,  0.534 sec
     gradient                   ...        0 min,  0.297 sec
 * total energy  :  -241.7947823 Eh     change       -0.8820643E-04 Eh
   gradient norm :     0.0034340 Eh/α   predicted    -0.5836097E-04 ( -33.84%)
   displ. norm   :     0.3682758 α      lambda       -0.1145546E-03
   maximum displ.:     0.2149264 α      in ANC's #8, #10, #4, ...

........................................................................
.............................. CYCLE   29 ..............................
........................................................................
   1   -245.2936346 -0.245294E+03  0.612E-03    0.08       0.0  T
   2   -245.2786937  0.149409E-01  0.167E-01    0.12       1.0  T
   3   -245.2923870 -0.136933E-01  0.432E-02    0.08       1.0  T
   4   -245.2931650 -0.778035E-03  0.269E-02    0.08       1.0  T
   5   -245.2936476 -0.482570E-03  0.280E-03    0.08       3.2  T
   6   -245.2936525 -0.487580E-05  0.722E-04    0.08      12.2  T
   7   -245.2936510  0.146302E-05  0.167E-03    0.08       5.3  T
   8   -245.2936522 -0.115688E-05  0.946E-04    0.08       9.3  T
   9   -245.2936523 -0.111144E-06  0.855E-04    0.08      10.3  T
  10   -245.2936528 -0.492446E-06  0.157E-04    0.08      56.2  T
  11   -245.2936528 -0.819006E-08  0.993E-05    0.08      89.0  T
     SCC iter.                  ...        0 min,  0.487 sec
     gradient                   ...        0 min,  0.297 sec
 * total energy  :  -241.7948758 Eh     change       -0.9349407E-04 Eh
   gradient norm :     0.0036840 Eh/α   predicted    -0.6504630E-04 ( -30.43%)
   displ. norm   :     0.3935361 α      lambda       -0.1055376E-03
   maximum displ.:     0.2299621 α      in ANC's #8, #10, #4, ...

........................................................................
.............................. CYCLE   30 ..............................
........................................................................
   1   -245.2939341 -0.245294E+03  0.196E-03    0.08       0.0  T
   2   -245.2928380  0.109615E-02  0.450E-02    0.09       1.0  T
   3   -245.2930730 -0.235051E-03  0.356E-02    0.08       1.0  T
   4   -245.2938723 -0.799245E-03  0.993E-03    0.08       1.0  T
   5   -245.2939272 -0.548926E-04  0.342E-03    0.08       2.6  T
   6   -245.2939212  0.594290E-05  0.449E-03    0.08       2.0  T
   7   -245.2939316 -0.103582E-04  0.231E-03    0.08       3.8  T
   8   -245.2939337 -0.208136E-05  0.152E-03    0.08       5.8  T
   9   -245.2939352 -0.156940E-05  0.226E-04    0.08      39.1  T
  10   -245.2939353 -0.348747E-07  0.319E-05    0.08     276.9  T
  11   -245.2939353 -0.449063E-09  0.154E-05    0.08     575.7  T
     SCC iter.                  ...        0 min,  0.491 sec
     gradient                   ...        0 min,  0.295 sec
 * total energy  :  -241.7949580 Eh     change       -0.8213649E-04 Eh
   gradient norm :     0.0033069 Eh/α   predicted    -0.6094170E-04 ( -25.80%)
   displ. norm   :     0.3527119 α      lambda       -0.7478637E-04
   maximum displ.:     0.2077379 α      in ANC's #8, #10, #4, ...

........................................................................
.............................. CYCLE   31 ..............................
........................................................................
   1   -245.2940143 -0.245294E+03  0.306E-03    0.08       0.0  T
   2   -245.2881837  0.583064E-02  0.105E-01    0.07       1.0  T
   3   -245.2935824 -0.539870E-02  0.254E-02    0.08       1.0  T
   4   -245.2937013 -0.118956E-03  0.217E-02    0.08       1.0  T
   5   -245.2940098 -0.308501E-03  0.375E-03    0.08       2.4  T
   6   -245.2940010  0.887192E-05  0.505E-03    0.08       1.7  T
   7   -245.2940156 -0.146255E-04  0.201E-03    0.08       4.4  T
   8   -245.2940165 -0.958679E-06  0.158E-03    0.08       5.6  T
   9   -245.2940182 -0.168362E-05  0.263E-04    0.08      33.7  T
  10   -245.2940183 -0.472637E-07  0.167E-05    0.08     528.4  T
  11   -245.2940183  0.533902E-09  0.321E-05    0.08     275.1  T
     SCC iter.                  ...        0 min,  0.488 sec
     gradient                   ...        0 min,  0.300 sec
 * total energy  :  -241.7950134 Eh     change       -0.5537603E-04 Eh
   gradient norm :     0.0024571 Eh/α   predicted    -0.4204538E-04 ( -24.07%)
   displ. norm   :     0.2781525 α      lambda       -0.4653557E-04
   maximum displ.:     0.1648789 α      in ANC's #8, #10, #4, ...

........................................................................
.............................. CYCLE   32 ..............................
........................................................................
   1   -245.2939672 -0.245294E+03  0.237E-03    0.08       0.0  T
   2   -245.2908230  0.314420E-02  0.770E-02    0.07       1.0  T
   3   -245.2938948 -0.307182E-02  0.107E-02    0.08       1.0  T
   4   -245.2928629  0.103191E-02  0.404E-02    0.08       1.0  T
   5   -245.2939630 -0.110011E-02  0.333E-03    0.08       2.7  T
   6   -245.2939644 -0.131295E-05  0.280E-03    0.08       3.2  T
   7   -245.2939691 -0.476355E-05  0.841E-04    0.08      10.5  T
   8   -245.2939673  0.183662E-05  0.180E-03    0.08       4.9  T
   9   -245.2939693 -0.203409E-05  0.547E-04    0.08      16.2  T
  10   -245.2939695 -0.206409E-06  0.583E-05    0.08     151.6  T
  11   -245.2939695 -0.232575E-08  0.641E-06    0.08    1379.0  T
     SCC iter.                  ...        0 min,  0.489 sec
     gradient                   ...        0 min,  0.318 sec
 * total energy  :  -241.7950468 Eh     change       -0.3341041E-04 Eh
   gradient norm :     0.0017740 Eh/α   predicted    -0.2507066E-04 ( -24.96%)
   displ. norm   :     0.2983971 α      lambda       -0.2931500E-04
   maximum displ.:     0.1778942 α      in ANC's #8, #10, #4, ...

........................................................................
.............................. CYCLE   33 ..............................
........................................................................
   1   -245.2937552 -0.245294E+03  0.192E-03    0.08       0.0  T
   2   -245.2925810  0.117424E-02  0.454E-02    0.09       1.0  T
   3   -245.2916606  0.920414E-03  0.556E-02    0.08       1.0  T
   4   -245.2936387 -0.197818E-02  0.133E-02    0.08       1.0  T
   5   -245.2937551 -0.116398E-03  0.148E-03    0.08       6.0  T
   6   -245.2937533  0.180369E-05  0.213E-03    0.08       4.2  T
   7   -245.2937563 -0.299951E-05  0.318E-04    0.08      27.8  T
   8   -245.2937550  0.134134E-05  0.142E-03    0.08       6.2  T
   9   -245.2937564 -0.136444E-05  0.198E-04    0.08      44.7  T
  10   -245.2937564 -0.106413E-07  0.151E-04    0.08      58.6  T
  11   -245.2937564 -0.142835E-07  0.435E-05    0.08     203.2  T
     SCC iter.                  ...        0 min,  0.489 sec
     gradient                   ...        0 min,  0.299 sec
 * total energy  :  -241.7950741 Eh     change       -0.2732628E-04 Eh
   gradient norm :     0.0019921 Eh/α   predicted    -0.1523905E-04 ( -44.23%)
   displ. norm   :     0.1422200 α      lambda       -0.1694703E-04
   maximum displ.:     0.0829718 α      in ANC's #8, #10, #4, ...

........................................................................
.............................. CYCLE   34 ..............................
........................................................................
   1   -245.2934910 -0.245293E+03  0.716E-03    0.09       0.0  T
   2   -245.2758883  0.176026E-01  0.181E-01    0.13       1.0  T
   3   -245.2934534 -0.175651E-01  0.108E-02    0.09       1.0  T
   4   -245.2698881  0.235653E-01  0.187E-01    0.08       1.0  T
   5   -245.2935133 -0.236252E-01  0.210E-03    0.09       4.2  T
   6   -245.2934904  0.229104E-04  0.616E-03    0.09       1.4  T
   7   -245.2935152 -0.248320E-04  0.878E-04    0.09      10.1  T
   8   -245.2935128  0.237812E-05  0.205E-03    0.09       4.3  T
   9   -245.2935153 -0.251564E-05  0.616E-04    0.09      14.4  T
  10   -245.2935156 -0.247886E-06  0.121E-04    0.09      72.9  T
  11   -245.2935156 -0.642015E-08  0.783E-05    0.09     112.9  T
     SCC iter.                  ...        0 min,  0.489 sec
     gradient                   ...        0 min,  0.300 sec
 * total energy  :  -241.7950924 Eh     change       -0.1834997E-04 Eh
   gradient norm :     0.0018257 Eh/α   predicted    -0.8550934E-05 ( -53.40%)
   displ. norm   :     0.1466173 α      lambda       -0.2062246E-04
   maximum displ.:     0.0744315 α      in ANC's #8, #4, #10, ...

........................................................................
.............................. CYCLE   35 ..............................
........................................................................
   1   -245.2931649 -0.245293E+03  0.127E-02    0.09       0.0  T
   2   -245.2576707  0.354942E-01  0.254E-01    0.14       1.0  T
   3   -245.2528588  0.481186E-02  0.244E-01    0.08       1.0  T
   4   -245.2930125 -0.401537E-01  0.207E-02    0.09       1.0  T
   5   -245.2932008 -0.188265E-03  0.760E-03    0.09       1.2  T
   6   -245.2932241 -0.232716E-04  0.504E-03    0.09       1.8  T
   7   -245.2932393 -0.152815E-04  0.184E-03    0.09       4.8  T
   8   -245.2932339  0.549158E-05  0.329E-03    0.09       2.7  T
   9   -245.2932409 -0.705982E-05  0.602E-04    0.09      14.7  T
  10   -245.2932408  0.926991E-07  0.767E-04    0.09      11.5  T
  11   -245.2932411 -0.243507E-06  0.449E-04    0.09      19.7  T
  12   -245.2932412 -0.958547E-07  0.132E-04    0.09      67.1  T
  13   -245.2932412 -0.950897E-08  0.576E-05    0.09     153.5  T
     SCC iter.                  ...        0 min,  0.578 sec
     gradient                   ...        0 min,  0.317 sec
 * total energy  :  -241.7951120 Eh     change       -0.1959820E-04 Eh
   gradient norm :     0.0016216 Eh/α   predicted    -0.1041108E-04 ( -46.88%)
   displ. norm   :     0.0839613 α      lambda       -0.9576175E-05
   maximum displ.:     0.0371243 α      in ANC's #4, #8, #20, ...

........................................................................
.............................. CYCLE   36 ..............................
........................................................................
   1   -245.2930424 -0.245293E+03  0.192E-03    0.09       0.0  T
   2   -245.2908666  0.217582E-02  0.612E-02    0.10       1.0  T
   3   -245.2880369  0.282969E-02  0.861E-02    0.09       1.0  T
   4   -245.2930228 -0.498584E-02  0.637E-03    0.09       1.4  T
   5   -245.2930348 -0.120484E-04  0.370E-03    0.09       2.4  T
   6   -245.2930381 -0.332771E-05  0.301E-03    0.09       2.9  T
   7   -245.2930428 -0.468805E-05  0.137E-03    0.09       6.4  T
   8   -245.2930429 -0.595414E-07  0.121E-03    0.09       7.3  T
   9   -245.2930439 -0.996229E-06  0.982E-05    0.09      90.1  T
  10   -245.2930439  0.589790E-08  0.129E-04    0.09      68.4  T
     SCC iter.                  ...        0 min,  0.445 sec
     gradient                   ...        0 min,  0.299 sec
 * total energy  :  -241.7951223 Eh     change       -0.1025183E-04 Eh
   gradient norm :     0.0011286 Eh/α   predicted    -0.4805234E-05 ( -53.13%)
   displ. norm   :     0.1038124 α      lambda       -0.1068449E-04
   maximum displ.:     0.0432492 α      in ANC's #4, #20, #27, ...

........................................................................
.............................. CYCLE   37 ..............................
........................................................................
   1   -245.2930356 -0.245293E+03  0.439E-03    0.09       0.0  T
   2   -245.2764920  0.165436E-01  0.173E-01    0.07       1.0  T
   3   -245.2775174 -0.102539E-02  0.152E-01    0.08       1.0  T
   4   -245.2929664 -0.154490E-01  0.111E-02    0.09       1.0  T
   5   -245.2930409 -0.745237E-04  0.282E-03    0.09       3.1  T
   6   -245.2930436 -0.267761E-05  0.169E-03    0.09       5.2  T
   7   -245.2930451 -0.148942E-05  0.393E-04    0.09      22.5  T
   8   -245.2930445  0.526196E-06  0.946E-04    0.09       9.3  T
   9   -245.2930451 -0.600652E-06  0.974E-05    0.09      90.8  T
  10   -245.2930451  0.686561E-07  0.330E-04    0.09      26.8  T
  11   -245.2930451 -0.705380E-07  0.721E-05    0.09     122.5  T
     SCC iter.                  ...        0 min,  0.488 sec
     gradient                   ...        0 min,  0.317 sec
 * total energy  :  -241.7951313 Eh     change       -0.9041783E-05 Eh
   gradient norm :     0.0011821 Eh/α   predicted    -0.5368283E-05 ( -40.63%)
   displ. norm   :     0.0677517 α      lambda       -0.6749849E-05
   maximum displ.:     0.0290989 α      in ANC's #4, #20, #27, ...

........................................................................
.............................. CYCLE   38 ..............................
........................................................................
   1   -245.2930034 -0.245293E+03  0.642E-03    0.09       0.0  T
   2   -245.2580241  0.349793E-01  0.255E-01    0.06       1.0  T
   3   -245.2769852 -0.189611E-01  0.154E-01    0.08       1.0  T
   4   -245.2928848 -0.158996E-01  0.154E-02    0.09       1.0  T
   5   -245.2930028 -0.117985E-03  0.627E-03    0.09       1.4  T
   6   -245.2930052 -0.244580E-05  0.552E-03    0.09       1.6  T
   7   -245.2930213 -0.161089E-04  0.195E-03    0.09       4.5  T
   8   -245.2930230 -0.173507E-05  0.700E-04    0.09      12.6  T
   9   -245.2930219  0.111490E-05  0.142E-03    0.09       6.2  T
  10   -245.2930231 -0.118860E-05  0.514E-04    0.09      17.2  T
  11   -245.2930233 -0.151396E-06  0.199E-04    0.09      44.4  T
  12   -245.2930233 -0.229192E-07  0.713E-05    0.09     124.0  T
     SCC iter.                  ...        0 min,  0.535 sec
     gradient                   ...        0 min,  0.306 sec
 * total energy  :  -241.7951369 Eh     change       -0.5570520E-05 Eh
   gradient norm :     0.0011535 Eh/α   predicted    -0.3386770E-05 ( -39.20%)
   displ. norm   :     0.0494904 α      lambda       -0.4780886E-05
   maximum displ.:     0.0217767 α      in ANC's #4, #1, #20, ...

........................................................................
.............................. CYCLE   39 ..............................
........................................................................
   1   -245.2929163 -0.245293E+03  0.481E-03    0.09       0.0  T
   2   -245.2757454  0.171708E-01  0.180E-01    0.06       1.0  T
   3   -245.2913102 -0.155648E-01  0.490E-02    0.09       1.0  T
   4   -245.2926694 -0.135923E-02  0.201E-02    0.09       1.0  T
   5   -245.2929132 -0.243804E-03  0.509E-03    0.09       1.7  T
   6   -245.2929079  0.532519E-05  0.554E-03    0.09       1.6  T
   7   -245.2929244 -0.165211E-04  0.227E-03    0.09       3.9  T
   8   -245.2929266 -0.217522E-05  0.102E-03    0.09       8.7  T
   9   -245.2929271 -0.519460E-06  0.314E-04    0.09      28.2  T
  10   -245.2929272 -0.474805E-07  0.155E-04    0.09      57.2  T
  11   -245.2929272 -0.123753E-07  0.746E-05    0.09     118.4  T
     SCC iter.                  ...        0 min,  0.488 sec
     gradient                   ...        0 min,  0.304 sec
 * total energy  :  -241.7951423 Eh     change       -0.5398414E-05 Eh
   gradient norm :     0.0008687 Eh/α   predicted    -0.2394426E-05 ( -55.65%)
   displ. norm   :     0.0871366 α      lambda       -0.6771607E-05
   maximum displ.:     0.0397027 α      in ANC's #4, #1, #14, ...

........................................................................
.............................. CYCLE   40 ..............................
[...]
    17   6 C    3.987 --    16 C    1.441     9 C    1.388    51 H    0.973
                            11 C    0.100
    18   6 C    3.918 --     8 C    1.333    21 N    1.201    19 C    1.180
    19   6 C    3.956 --    20 C    1.637    18 C    1.180    52 H    0.973
    20   6 C    3.960 --    19 C    1.637    22 C    1.189    53 H    0.973
    21   7 N    3.379 --    22 C    1.246    18 C    1.201     1 Fe   0.661
    22   6 C    3.904 --    23 C    1.251    21 N    1.246    20 C    1.189
    23   6 C    3.920 --    22 C    1.251    24 C    1.250   126 C    1.203
    24   6 C    3.904 --    23 C    1.250    28 N    1.246    25 C    1.189
    25   6 C    3.960 --    26 C    1.637    24 C    1.189    54 H    0.973
    26   6 C    3.956 --    25 C    1.637    27 C    1.180    55 H    0.973
    27   6 C    3.918 --    29 C    1.333    28 N    1.201    26 C    1.180
    28   7 N    3.378 --    24 C    1.246    27 C    1.201     1 Fe   0.658
    29   6 C    3.922 --    27 C    1.333    39 C    1.315    30 C    1.025
    30   6 C    3.988 --    38 C    1.406    31 C    1.389    29 C    1.025
                            33 C    0.103
    31   6 C    3.987 --    32 C    1.439    30 C    1.389    56 H    0.973
                            34 C    0.100
    32   6 C    3.994 --    33 C    1.451    31 C    1.439    57 H    0.972
                            38 C    0.104
    33   6 C    3.986 --    32 C    1.451    34 C    1.388    58 H    0.969
                            30 C    0.103
    34   6 C    3.988 --    38 C    1.400    33 C    1.388    35 C    1.004
                            31 C    0.100
    35   6 C    3.836 --    37 O    1.693    36 O    1.090    34 C    1.004
    36   8 O    2.099 --    35 C    1.090    59 H    0.838    37 O    0.129
    37   8 O    1.961 --    35 C    1.693    36 O    0.129
    38   6 C    3.985 --    30 C    1.406    34 C    1.400    60 H    0.969
                            32 C    0.104
    39   6 C    3.921 --    29 C    1.315    43 N    1.225    40 C    1.174
    40   6 C    3.961 --    41 C    1.650    39 C    1.174    61 H    0.973
    41   6 C    3.959 --    40 C    1.650    42 C    1.173    62 H    0.975
    42   6 C    3.923 --     2 C    1.363    43 N    1.209    41 C    1.173
    43   7 N    3.380 --    39 C    1.225    42 C    1.209     1 Fe   0.669
    44   1 H    1.000 --     2 C    0.970
    45   1 H    0.997 --     4 C    0.975
    46   1 H    1.003 --     5 C    0.973
    47   1 H    1.006 --    10 C    0.968
    48   1 H    0.872 --    13 O    0.838
    49   1 H    1.005 --    15 C    0.970
    50   1 H    1.001 --    16 C    0.972
    51   1 H    1.004 --    17 C    0.973
    52   1 H    1.004 --    19 C    0.973
    53   1 H    1.002 --    20 C    0.973
    54   1 H    1.002 --    25 C    0.973
    55   1 H    1.004 --    26 C    0.973
    56   1 H    1.004 --    31 C    0.973
    57   1 H    1.001 --    32 C    0.972
    58   1 H    1.005 --    33 C    0.969
    59   1 H    0.873 --    36 O    0.838
    60   1 H    1.007 --    38 C    0.969
    61   1 H    1.004 --    40 C    0.973
    62   1 H    0.997 --    41 C    0.975
    63  26 Fe   3.131 --   105 N    0.669    69 N    0.666    83 N    0.661
                            90 N    0.657
    64   6 C    3.921 --    65 C    1.363   104 C    1.362   106 H    0.970
    65   6 C    3.923 --    64 C    1.363    69 N    1.209    66 C    1.172
    66   6 C    3.959 --    67 C    1.651    65 C    1.172   107 H    0.975
    67   6 C    3.961 --    66 C    1.651    68 C    1.174   108 H    0.973
    68   6 C    3.921 --    70 C    1.315    69 N    1.225    67 C    1.174
    69   7 N    3.379 --    68 C    1.225    65 C    1.209    63 Fe   0.666
    70   6 C    3.922 --    80 C    1.333    68 C    1.315    71 C    1.025
    71   6 C    3.988 --    72 C    1.409    79 C    1.388    70 C    1.025
                            77 C    0.103
    72   6 C    3.983 --    71 C    1.409    73 C    1.396   109 H    0.968
                            78 C    0.104
    73   6 C    3.988 --    72 C    1.396    77 C    1.392    74 C    1.004
                            79 C    0.100
    74   6 C    3.836 --    76 O    1.693    75 O    1.090    73 C    1.004
    75   8 O    2.099 --    74 C    1.090   110 H    0.838    76 O    0.129
    76   8 O    1.962 --    74 C    1.693    75 O    0.129
    77   6 C    3.987 --    78 C    1.448    73 C    1.392   111 H    0.970
                            71 C    0.103
    78   6 C    3.994 --    77 C    1.448    79 C    1.441   112 H    0.972
                            72 C    0.104
    79   6 C    3.987 --    78 C    1.441    71 C    1.388   113 H    0.973
                            73 C    0.100
    80   6 C    3.918 --    70 C    1.333    83 N    1.201    81 C    1.180
    81   6 C    3.956 --    82 C    1.637    80 C    1.180   114 H    0.973
    82   6 C    3.960 --    81 C    1.637    84 C    1.189   115 H    0.973
    83   7 N    3.379 --    84 C    1.246    80 C    1.201    63 Fe   0.661
    84   6 C    3.904 --    85 C    1.251    83 N    1.246    82 C    1.189
    85   6 C    3.920 --    84 C    1.251    86 C    1.250   128 C    1.203
    86   6 C    3.904 --    85 C    1.250    90 N    1.246    87 C    1.189
    87   6 C    3.960 --    88 C    1.637    86 C    1.189   116 H    0.973
    88   6 C    3.956 --    87 C    1.637    89 C    1.180   117 H    0.973
    89   6 C    3.918 --    91 C    1.333    90 N    1.201    88 C    1.180
    90   7 N    3.378 --    86 C    1.246    89 C    1.201    63 Fe   0.657
    91   6 C    3.922 --    89 C    1.333   101 C    1.315    92 C    1.025
    92   6 C    3.988 --   100 C    1.406    93 C    1.389    91 C    1.025
                            95 C    0.103
    93   6 C    3.987 --    94 C    1.440    92 C    1.389   118 H    0.973
                            96 C    0.100
    94   6 C    3.994 --    95 C    1.451    93 C    1.440   119 H    0.972
                           100 C    0.104
    95   6 C    3.986 --    94 C    1.451    96 C    1.388   120 H    0.969
                            92 C    0.103
    96   6 C    3.988 --   100 C    1.400    95 C    1.388    97 C    1.004
                            93 C    0.100
    97   6 C    3.836 --    99 O    1.693    98 O    1.090    96 C    1.004
    98   8 O    2.099 --    97 C    1.090   121 H    0.838    99 O    0.129
    99   8 O    1.961 --    97 C    1.693    98 O    0.129
   100   6 C    3.985 --    92 C    1.406    96 C    1.400   122 H    0.969
                            94 C    0.104
   101   6 C    3.921 --    91 C    1.315   105 N    1.225   102 C    1.174
   102   6 C    3.961 --   103 C    1.650   101 C    1.174   123 H    0.973
   103   6 C    3.959 --   102 C    1.650   104 C    1.173   124 H    0.975
   104   6 C    3.923 --    64 C    1.362   105 N    1.210   103 C    1.173
   105   7 N    3.380 --   101 C    1.225   104 C    1.210    63 Fe   0.669
   106   1 H    1.000 --    64 C    0.970
   107   1 H    0.997 --    66 C    0.975
   108   1 H    1.003 --    67 C    0.973
   109   1 H    1.006 --    72 C    0.968
   110   1 H    0.872 --    75 O    0.838
   111   1 H    1.005 --    77 C    0.970
   112   1 H    1.001 --    78 C    0.972
   113   1 H    1.004 --    79 C    0.973
   114   1 H    1.004 --    81 C    0.973
   115   1 H    1.002 --    82 C    0.973
   116   1 H    1.002 --    87 C    0.973
   117   1 H    1.004 --    88 C    0.973
   118   1 H    1.004 --    93 C    0.973
   119   1 H    1.001 --    94 C    0.972
   120   1 H    1.005 --    95 C    0.969
   121   1 H    0.872 --    98 O    0.838
   122   1 H    1.007 --   100 C    0.969
   123   1 H    1.004 --   102 C    0.973
   124   1 H    0.997 --   103 C    0.975
   125   6 C    3.922 --   126 C    2.449   127 C    1.326
   126   6 C    3.914 --   125 C    2.449    23 C    1.203   128 C    0.196
   127   6 C    3.922 --   128 C    2.448   125 C    1.326
   128   6 C    3.914 --   127 C    2.448    85 C    1.203   126 C    0.196
 ---------------------------------------------------------------------------

Topologies differ in total number of bonds
Writing topology from bond orders to xtbtopo.mol

 dipole moment from electron density (au)
     X       Y       Z   
   0.0017   0.2519  -1.5022  total (Debye):    3.872

           -------------------------------------------------
          |                Geometry Summary                 |
           -------------------------------------------------

      molecular mass/u    :     1254.8138872
   center of mass at/Å    :       22.4694726      -0.0010490       0.0079911
  moments of inertia/u·Å² :        0.2909023E+05   0.6365821E+05   0.9029913E+05
rotational constants/cm⁻¹ :        0.5794945E-03   0.2648148E-03   0.1866865E-03

 * 128 selected distances

     #   Z          #   Z                                           value/Å
     2   6 C        3   6 C                                       1.3793999
     3   6 C        4   6 C                                       1.4318899
     4   6 C        5   6 C                                       1.3535146
     5   6 C        6   6 C                                       1.4346625
     3   6 C        7   7 N                                       1.3704485
     6   6 C        7   7 N                                       1.3683883
     6   6 C        8   6 C                                       1.3903164
     9   6 C       10   6 C                                       1.3917076
    10   6 C       11   6 C                                       1.3943168
    12   6 C       13   8 O                                       1.3409191
    12   6 C       14   8 O                                       1.2042393
    11   6 C       15   6 C                                       1.3947466
    15   6 C       16   6 C                                       1.3860670
     9   6 C       17   6 C                                       1.3966865
    16   6 C       17   6 C                                       1.3877377
     8   6 C       18   6 C                                       1.3875120
    18   6 C       19   6 C                                       1.4326326
    19   6 C       20   6 C                                       1.3547395
    18   6 C       21   7 N                                       1.3745593
    20   6 C       22   6 C                                       1.4292808
    21   7 N       22   6 C                                       1.3633308
    22   6 C       23   6 C                                       1.4001824
    23   6 C       24   6 C                                       1.4003432
    24   6 C       25   6 C                                       1.4292493
    25   6 C       26   6 C                                       1.3548854
    26   6 C       27   6 C                                       1.4326668
    24   6 C       28   7 N                                       1.3631830
    27   6 C       28   7 N                                       1.3745442
    27   6 C       29   6 C                                       1.3876415
    30   6 C       31   6 C                                       1.3964362
    31   6 C       32   6 C                                       1.3879981
    32   6 C       33   6 C                                       1.3848256
    33   6 C       34   6 C                                       1.3956872
    35   6 C       36   8 O                                       1.3408455
    35   6 C       37   8 O                                       1.2043188
    30   6 C       38   6 C                                       1.3930657
    34   6 C       38   6 C                                       1.3933744
    29   6 C       39   6 C                                       1.3905261
    39   6 C       40   6 C                                       1.4347202 (max)
    40   6 C       41   6 C                                       1.3536133
     2   6 C       42   6 C                                       1.3795674
    41   6 C       42   6 C                                       1.4317787
    39   6 C       43   7 N                                       1.3685021
    42   6 C       43   7 N                                       1.3703061
     2   6 C       44   1 H                                       1.0841699
     4   6 C       45   1 H                                       1.0783416
     5   6 C       46   1 H                                       1.0778575
    10   6 C       47   1 H                                       1.0845116
    13   8 O       48   1 H                                       0.9711130
    15   6 C       49   1 H                                       1.0832337
    16   6 C       50   1 H                                       1.0841061
    17   6 C       51   1 H                                       1.0842508
    19   6 C       52   1 H                                       1.0778153
    20   6 C       53   1 H                                       1.0780314
    25   6 C       54   1 H                                       1.0781159
    26   6 C       55   1 H                                       1.0778304
    31   6 C       56   1 H                                       1.0842295
    32   6 C       57   1 H                                       1.0840063
    33   6 C       58   1 H                                       1.0841560
    36   8 O       59   1 H                                       0.9710165
    38   6 C       60   1 H                                       1.0835421
    40   6 C       61   1 H                                       1.0778743
    41   6 C       62   1 H                                       1.0783595
    64   6 C       65   6 C                                       1.3793939
    65   6 C       66   6 C                                       1.4318821
    66   6 C       67   6 C                                       1.3535169
    67   6 C       68   6 C                                       1.4346673
    65   6 C       69   7 N                                       1.3704878
    68   6 C       69   7 N                                       1.3683408
    68   6 C       70   6 C                                       1.3903328
    71   6 C       72   6 C                                       1.3917177
    72   6 C       73   6 C                                       1.3943029
    74   6 C       75   8 O                                       1.3408820
    74   6 C       76   8 O                                       1.2042526
    73   6 C       77   6 C                                       1.3947506
    77   6 C       78   6 C                                       1.3860571
    71   6 C       79   6 C                                       1.3966707
    78   6 C       79   6 C                                       1.3877520
    70   6 C       80   6 C                                       1.3875024
    80   6 C       81   6 C                                       1.4326413
    81   6 C       82   6 C                                       1.3547299
    80   6 C       83   7 N                                       1.3745557
    82   6 C       84   6 C                                       1.4292374
    83   7 N       84   6 C                                       1.3633945
    84   6 C       85   6 C                                       1.4001757
    85   6 C       86   6 C                                       1.4003199
    86   6 C       87   6 C                                       1.4292840
    87   6 C       88   6 C                                       1.3548850
    88   6 C       89   6 C                                       1.4326755
    86   6 C       90   7 N                                       1.3631595
    89   6 C       90   7 N                                       1.3745880
    89   6 C       91   6 C                                       1.3876262
    92   6 C       93   6 C                                       1.3964570
    93   6 C       94   6 C                                       1.3879808
    94   6 C       95   6 C                                       1.3848362
    95   6 C       96   6 C                                       1.3956850
    97   6 C       98   8 O                                       1.3408123
    97   6 C       99   8 O                                       1.2043531
    92   6 C      100   6 C                                       1.3930388
    96   6 C      100   6 C                                       1.3933961
    91   6 C      101   6 C                                       1.3905252
   101   6 C      102   6 C                                       1.4347114
   102   6 C      103   6 C                                       1.3536250
    64   6 C      104   6 C                                       1.3795790
   103   6 C      104   6 C                                       1.4317801
   101   6 C      105   7 N                                       1.3685053
   104   6 C      105   7 N                                       1.3702804
    64   6 C      106   1 H                                       1.0841745
    66   6 C      107   1 H                                       1.0783449
    67   6 C      108   1 H                                       1.0778571
    72   6 C      109   1 H                                       1.0845064
    75   8 O      110   1 H                                       0.9710879
    77   6 C      111   1 H                                       1.0832329
    78   6 C      112   1 H                                       1.0841039
    79   6 C      113   1 H                                       1.0842506
    81   6 C      114   1 H                                       1.0778002
    82   6 C      115   1 H                                       1.0780355
    87   6 C      116   1 H                                       1.0781070
    88   6 C      117   1 H                                       1.0778694
    93   6 C      118   1 H                                       1.0842337
    94   6 C      119   1 H                                       1.0840064
    95   6 C      120   1 H                                       1.0841558
    98   8 O      121   1 H                                       0.9710082 (min)
   100   6 C      122   1 H                                       1.0835477
   102   6 C      123   1 H                                       1.0778734
   103   6 C      124   1 H                                       1.0783617
   125   6 C      126   6 C                                       1.2238787
   127   6 C      128   6 C                                       1.2239091

 * 5 distinct bonds (by element types)

   Z      Z             #   av. dist./Å        max./Å        min./Å
   1 H    6 C          34     1.0812027     1.0845116     1.0778002
   6 C    6 C          66     1.3913833     1.4347202     1.2238787
   6 C    7 N          16     1.3691609     1.3745880     1.3631595
   1 H    8 O           4     0.9710564     0.9711130     0.9710082
   6 C    8 O           8     1.2725778     1.3409191     1.2042393


optimized geometry written to: xtbopt.xyz


           -------------------------------------------------
          | TOTAL ENERGY             -241.795153167985 Eh   |
          | GRADIENT NORM               0.000765232068 Eh/α |
          | HOMO-LUMO GAP               0.085714279837 eV   |
           -------------------------------------------------

------------------------------------------------------------------------
 * finished run on 2022/07/29 at 16:30:00.838     
------------------------------------------------------------------------
 total:
 * wall-time:     0 d,  0 h,  0 min, 49.018 sec
 *  cpu-time:     0 d,  0 h,  0 min, 48.824 sec
 * ratio c/w:     0.996 speedup
 SCF:
 * wall-time:     0 d,  0 h,  0 min,  2.856 sec
 *  cpu-time:     0 d,  0 h,  0 min,  2.845 sec
 * ratio c/w:     0.996 speedup
 ANC optimizer:
 * wall-time:     0 d,  0 h,  0 min, 46.027 sec
 *  cpu-time:     0 d,  0 h,  0 min, 45.852 sec
 * ratio c/w:     0.996 speedup

