126
 energy: -232.665111752787 gnorm: 1.439710610418 xtb: 6.5.1 (b24c23e)
Zn          17.26417000000000       -0.12271000000000       -0.01778900000000
C           13.91971400000000        0.03308500000000        0.07064500000000
C           14.57113500000000        1.19531600000000        0.17177600000000
C           13.90838500000000        2.49190200000000        0.24297300000000
C           14.84006700000000        3.41892300000000        0.36638500000000
C           16.15137900000000        2.75617000000000        0.39299700000000
N           15.98737200000000        1.34375000000000        0.25915900000000
C           17.33783800000000        3.38155400000000        0.54139900000000
C           17.37373600000000        4.85173400000000        0.71739500000000
C           16.88494700000000        5.43814300000000        1.89607100000000
C           16.92932300000000        6.83346500000000        2.07217700000000
C           16.40974400000000        7.45462600000000        3.31043900000000
O           16.46060600000000        8.83621100000000        3.47738800000000
O           15.91624400000000        6.74052400000000        4.22499600000000
C           17.47687600000000        7.63287800000000        1.05365200000000
C           17.97066300000000        7.04905400000000       -0.11591500000000
C           17.92183700000000        5.66426100000000       -0.28461800000000
C           18.63581599999999        2.65687600000000        0.54776800000000
C           19.91348100000000        3.27339700000000        0.92537100000000
C           20.85654000000000        2.36366300000000        0.78761500000000
N           18.79006300000000        1.41689600000000        0.19707100000000
C           20.18772500000000        1.15470000000000        0.32276600000000
C           20.79268400000000        0.00000000000000        0.00000000000000
C           20.04006200000000       -1.19121600000000       -0.45201000000000
C           20.57981300000000       -2.21279100000000       -1.10468800000000
C           19.54616000000000       -3.21732100000000       -1.26369600000000
C           18.44440400000000       -2.74431700000000       -0.69268400000000
N           18.66635800000000       -1.44029100000000       -0.15351600000000
C           17.17283500000000       -3.50190500000000       -0.56803500000000
C           17.20874400000000       -4.97674700000000       -0.72348800000000
C           17.95341900000000       -5.75738500000000        0.17203100000000
C           18.00503700000000       -7.14395000000000        0.01982200000000
C           17.31929100000000       -7.76214500000000       -1.02876400000000
C           16.57435600000000       -6.99504900000000       -1.94254800000000
C           15.84965700000000       -7.64383200000000       -3.05747900000000
O           15.11210700000000       -6.87704300000000       -3.95599800000000
O           15.89223800000000       -8.89540500000000       -3.20449700000000
C           16.52857900000000       -5.59862100000000       -1.78388100000000
C           16.00504300000000       -2.88003700000000       -0.31538200000000
C           14.70356600000000       -3.52159100000000       -0.13655800000000
C           13.83274400000000       -2.54502100000000        0.03038400000000
C           14.56949700000000       -1.28359600000000       -0.02733000000000
N           15.83617600000000       -1.46662100000000       -0.22852900000000
H           12.83612500000000        0.05040800000000        0.06130200000000
H           12.84316900000000        2.67901900000000        0.19761200000000
H           14.64228000000000        4.48072800000000        0.43315500000000
H           16.47303200000000        4.80255500000000        2.67111100000000
H           16.10735500000000        9.27174700000000        4.32107600000000
H           17.52579400000000        8.70924500000000        1.15991000000000
H           18.39282500000000        7.67231000000000       -0.89364200000000
H           18.30894400000000        5.22404500000000       -1.19546700000000
H           20.07481600000000        4.28937700000000        1.26103500000000
H           21.90891100000000        2.51536400000000        0.98743100000000
H           21.60616300000000       -2.30037500000000       -1.43512300000000
H           19.66361900000000       -4.18359400000000       -1.73689500000000
H           18.49030900000000       -5.29118300000000        0.98917800000000
H           18.57858299999999       -7.74180100000000        0.71635200000000
H           17.37441300000000       -8.83928000000000       -1.12505100000000
H           14.61209500000000       -7.31123600000000       -4.72261100000000
H           15.96893100000000       -4.98845900000000       -2.48280500000000
H           14.47149700000000       -4.57844500000000       -0.13565200000000
H           12.76923700000000       -2.66996200000000        0.18620500000000
Zn          27.67872100000000        0.12180100000000        0.02321000000000
C           31.02317700000000       -0.05431900000000        0.05598900000000
C           30.37175600000000       -1.18597100000000       -0.22751100000000
C           31.03450500000000       -2.43486600000000       -0.58313100000000
C           30.10282400000000       -3.35143900000000       -0.76884800000000
C           28.79151100000000       -2.73361500000000       -0.52751300000000
N           28.95551900000000       -1.35478900000000       -0.19332300000000
C           27.60505300000000       -3.37320100000000       -0.59121700000000
C           27.56915500000000       -4.82037800000000       -0.90439300000000
C           28.05794300000000       -5.75917900000000        0.01854000000000
C           28.01356700000000       -7.13562800000000       -0.27011500000000
C           28.53314600000000       -8.12671600000000        0.69781000000000
O           28.48228500000000       -9.48719300000000        0.40497800000000
O           29.02664700000000       -7.74998300000000        1.79527400000000
C           27.46601400000000       -7.55909400000000       -1.49368900000000
C           26.97222800000000       -6.62570900000000       -2.40885500000000
C           27.02105400000000       -5.26162700000000       -2.11663500000000
C           26.30707500000000       -2.69023500000000       -0.34881800000000
C           25.02941000000000       -3.39620400000000       -0.19296700000000
C           24.08635000000000       -2.49129300000000       -0.02644800000000
N           26.15282700000000       -1.40368300000000       -0.27587400000000
C           24.75516600000000       -1.19682700000000       -0.07153000000000
C           24.15020700000000        0.00000000000000        0.00000000000000
C           24.90282900000000        1.27350200000000       -0.03873400000000
C           24.36307800000000        2.45209600000000       -0.32249400000000
C           25.39673100000000        3.45355100000000       -0.14514500000000
C           26.49848700000000        2.82016300000000        0.24035000000000
N           26.27653300000000        1.41159100000000        0.32467900000000
C           27.77005600000000        3.49565700000000        0.60529400000000
C           27.73414700000000        4.94054200000000        0.93941100000000
C           26.98947200000000        5.38638100000000        2.04058200000000
C           26.93785400000000        6.74675800000000        2.34897200000000
C           27.62360000000000        7.67317300000000        1.55938000000000
C           28.36853500000000        7.24609200000000        0.44536100000000
C           29.09323400000000        8.22306300000000       -0.39696900000000
O           29.83078400000000        7.79129400000000       -1.49645900000000
O           29.05065300000000        9.45413800000000       -0.12770500000000
C           28.41431200000000        5.87428500000000        0.13985900000000
C           28.93784700000000        2.82539000000000        0.64128600000000
C           30.23932500000000        3.37352700000000        1.01959300000000
C           31.11014700000000        2.39591500000000        0.85886500000000
C           30.37339300000000        1.22230700000000        0.39285200000000
N           29.10671500000000        1.46094900000000        0.26235600000000
H           32.10676600000000       -0.06764700000000        0.04150700000000
H           32.09972100000000       -2.59695300000000       -0.68704600000000
H           30.30061100000000       -4.37695000000000       -1.05207200000000
H           28.46985900000000       -5.41115800000000        0.95850800000000
H           28.83553600000000      -10.17410500000000        1.06045800000000
H           27.41709700000000       -8.61125100000000       -1.74433500000000
H           26.55006600000000       -6.96119500000000       -3.34734100000000
H           26.63394700000000       -4.54838400000000       -2.83407700000000
H           24.86807400000000       -4.46610400000000       -0.20705600000000
H           23.03397900000000       -2.69987400000000        0.11295700000000
H           23.33672800000000        2.64267200000000       -0.60628900000000
H           25.27927200000000        4.52132400000000       -0.27728200000000
H           26.45258200000000        4.67913800000000        2.66096900000000
H           26.36430800000000        7.08471500000000        3.20241500000000
H           27.56847800000000        8.72280300000000        1.81970300000000
H           30.33079600000000        8.45179500000000       -2.07951700000000
H           28.97396000000000        5.52547200000000       -0.71986200000000
H           30.47139400000000        4.37228200000000        1.36517700000000
H           32.17365400000000        2.46319600000000        1.04691700000000
C           21.86048700000000        0.00000000000000        0.00000000000000
C           23.08240400000000        0.00000000000000        0.00000000000000
126
 energy: -233.003088650695 gnorm: 0.372556982248 xtb: 6.5.1 (b24c23e)
Zn          17.26542841312678       -0.11695087281456       -0.01653460909960
C           13.92049730362272        0.01841374029655        0.06979150545872
C           14.57691594641111        1.19773200132900        0.17209510705484
C           13.90725523979722        2.48661001086975        0.24239733593667
C           14.84768838811531        3.42131268069651        0.36716692714338
C           16.14831905652199        2.75083082765554        0.39243112651012
N           15.96980537389021        1.36114550399832        0.25863618123068
C           17.34987805494737        3.38096493052229        0.54355042971250
C           17.37625488203678        4.85494220245869        0.72075340165133
C           16.88490512541540        5.44332685589064        1.89477907146000
C           16.92931798872693        6.83982333992744        2.07288296713708
C           16.40222719182884        7.45344578798910        3.32679387771026
O           16.46168005391506        8.82547576797000        3.47291100823712
O           15.92234993136115        6.75332695639584        4.21428813047918
C           17.47729875685877        7.63190000966172        1.05261057187757
C           17.96891278517364        7.04784371596052       -0.11267024231136
C           17.92160488379584        5.66657671708854       -0.28122716287202
C           18.62574665735158        2.68045303583922        0.55124108916537
C           19.90041767353081        3.28633612223154        0.92592446848870
C           20.84969136930701        2.35573810933665        0.78507300712035
N           18.78402999653559        1.42457546317713        0.20243904269121
C           20.13508938993994        1.17857514659868        0.32951072347965
C           20.65790333005696       -0.01315392273351       -0.00307011102824
C           19.99624026821507       -1.19956375542778       -0.44897664889023
C           20.57662241728751       -2.23138300549743       -1.11131941538309
C           19.56360161820294       -3.22159004214252       -1.26756251536908
C           18.43284991136107       -2.74222989619344       -0.68458379717169
N           18.66065363905521       -1.45342866722053       -0.16028227813647
C           17.18279377687205       -3.49652122863198       -0.56803958503660
C           17.21283097999572       -4.97574045032138       -0.72660304943880
C           17.95266862144409       -5.75880816337679        0.16873311696289
C           18.00137924916052       -7.14222934932606        0.01561950191487
C           17.31733971546728       -7.75884597817092       -1.03093782065054
C           16.57088543620311       -6.99137408942040       -1.94630171412842
C           15.84478719777325       -7.65825576506064       -3.06687559576382
O           15.11880063784089       -6.88018808065621       -3.94703564713517
O           15.88950708609912       -8.87757663816001       -3.20520836306671
C           16.52913769558471       -5.59835203488276       -1.78132996766498
C           16.00244513833392       -2.88009574689388       -0.31498501787720
C           14.70941297723480       -3.52179441920797       -0.13786235227964
C           13.82435147437378       -2.53591381319662        0.03151542076336
C           14.55211790272122       -1.27693658078888       -0.02686995531214
N           15.83410961468743       -1.47842734546110       -0.22673726002685
H           12.83656716847367        0.04662847910968        0.06169097370964
H           12.84319345693242        2.67352550750039        0.19720219383239
H           14.64903485925015        4.48150931715077        0.43376951154673
H           16.47337680876364        4.80515315332851        2.67113762038163
H           16.11189294845551        9.25173986909348        4.30747557130001
H           17.52526753891166        8.70895523660794        1.16112658135254
H           18.39225502203406        7.67180786018521       -0.89265305986950
H           18.30824354026016        5.22379725463407       -1.19385179498912
H           20.07010373497756        4.29401160066956        1.26151583438427
H           21.90521662447735        2.50607913098499        0.98549401337710
H           21.60430908173862       -2.30113840598044       -1.43725365841396
H           19.66781477694571       -4.18438119655109       -1.73897215420363
H           18.48943859119159       -5.29095759796844        0.98782568515793
H           18.57715791300490       -7.74114529767849        0.71469084844866
H           17.37261285739973       -8.83813543316963       -1.12742078124167
H           14.62655483706025       -7.31276216034312       -4.70276503182649
H           15.96932764758099       -4.98909776880496       -2.48248145079438
H           14.47774876961689       -4.57794767366631       -0.13648529055368
H           12.76627793417689       -2.66533869337582        0.18681895362008
Zn          27.67746255672887        0.11594768259209        0.02251724229693
C           31.02239362927475       -0.04017165715820        0.05996777286752
C           30.36597499613367       -1.18835877617565       -0.22799724013867
C           31.03563504742301       -2.42967548662963       -0.58194912158931
C           30.09520237322056       -3.35395330359772       -0.76888831492472
C           28.79457117908409       -2.72838315153297       -0.52630629843293
N           28.97308554860522       -1.37106257429175       -0.19949144550616
C           27.59301280831373       -3.37334579034222       -0.58899099586164
C           27.56663595105207       -4.82450636254017       -0.90226503373804
C           28.05798497900713       -5.76365783301964        0.01562797163931
C           28.01357194804400       -7.14186915123604       -0.27152178696504
C           28.54066296148013       -8.13093498663677        0.71365524760050
O           28.48121092069571       -9.47558469477751        0.40424762960029
O           29.02054102756609       -7.75859302246216        1.78097576081181
C           27.46559135691330       -7.55782991094518       -1.49435435218911
C           26.97397814715512       -6.62562318163719       -2.40539294552932
C           27.02128603694283       -5.26492186664825       -2.11418514098352
C           26.31714419761290       -2.71365550350980       -0.35322537624457
C           25.04247312299605       -3.40861595667157       -0.19666417135715
C           24.09319880743014       -2.48297246574106       -0.02626606573668
N           26.15886019867971       -1.41269323308523       -0.27330446579918
C           24.80780138395899       -1.22159616239103       -0.07294179717310
C           24.28498766660604        0.01343583047855        0.00138840311075
C           24.94665077288780        1.28040380056525       -0.03314360479651
C           24.36626853686256        2.47183424829742       -0.32269841312264
C           25.37928932467508        3.45884763970982       -0.14740761522837
C           26.51004104790938        2.81554779863429        0.24732648780576
N           26.28223737205468        1.42621712951233        0.32256801775716
C           27.76009714294788        3.49056938948703        0.60353356828188
C           27.73005999756516        4.94060645402334        0.93613806374508
C           26.99022239008180        5.38880212733603        2.03792869953255
C           26.94151179306210        6.74650234567345        2.34443794192184
C           27.62555124692398        7.67076339103904        1.55624918398190
C           28.37200556763129        7.24384267205604        0.44061386419901
C           29.09810378854249        8.23976285017720       -0.40114694313105
O           29.82409032275065        7.79134357332389       -1.48696088481759
O           29.05338388368101        9.43751676736627       -0.13419268567002
C           28.41375328105383        5.87319870248809        0.14218285267219
C           28.94044517527340        2.82531616652378        0.64168039643390
C           30.23347795628152        3.37414455299010        1.01842637592108
C           31.11853942691906        2.38693678292159        0.85696384868456
C           30.39077241888636        1.21586152989168        0.39111461747779
N           29.10878132852553        1.47152513136076        0.26790083722519
H           32.10632379298931       -0.06420103193031        0.04310750491025
H           32.09969666889039       -2.59162626720985       -0.68564148542923
H           30.29385607235458       -4.37788905699617       -1.05174597068854
H           28.46951418682842       -5.41362270861742        0.95768578235291
H           28.83099802005590      -10.15075583488124        1.05412734067434
H           27.41762344857231       -8.61137379744569       -1.74309037251713
H           26.55063596202025       -6.96104293815818       -3.34624242937115
H           26.63464754786054       -4.54867680665218       -2.83246914394602
H           24.87278626670366       -4.47064211460520       -0.20811322335764
H           23.03767349540354       -2.69046513534291        0.11415450190208
H           23.33858195961862        2.64408863235576       -0.60805407418586
H           25.27507617590298        4.52274585453293       -0.27898879604278
H           26.45345236842985        4.67936596952819        2.65961719878769
H           26.36573313133635        7.08463697779327        3.20063077489585
H           27.57027813220945        8.72249396720697        1.81708946193485
H           30.31633617972368        8.44676432918429       -2.06025868433734
H           28.97356345689209        5.52597022898416       -0.71934797521687
H           30.46514221735322        4.37208380342338        1.36422710079603
H           32.17661302314799        2.45862530422511        1.04598933099549
C           21.90801600869152       -0.00629653551860       -0.00199362823751
C           23.03487500430009        0.00660240259912        0.00016923270430
126
 energy: -233.105846430310 gnorm: 0.215626690175 xtb: 6.5.1 (b24c23e)
Zn          17.25972112522311       -0.10477151364166       -0.01288760580217
C           13.92085070617995        0.00181546218709        0.06883375152629
C           14.57808336735699        1.19975394592409        0.17107687260897
C           13.90677984496011        2.48095259977341        0.24161099789306
C           14.85481713445883        3.42371338022155        0.36830143277544
C           16.14271585342789        2.75192956434489        0.39275350190610
N           15.94484650104197        1.38660305452942        0.25678856256845
C           17.35512760588162        3.38928822377329        0.54991584628196
C           17.37796808254405        4.86401030608702        0.72878689594902
C           16.88366168833535        5.45519157863467        1.89543013973542
C           16.92912012373236        6.84952598807141        2.07295168283685
C           16.39581837535366        7.44959865584214        3.33949614806233
O           16.46905637853019        8.80672572514499        3.45324656099214
O           15.92451792184059        6.76678971713313        4.21202400847111
C           17.47718522389713        7.63442230023450        1.05300519730656
C           17.96670756458797        7.04868792180309       -0.10791358216392
C           17.92199739190413        5.67098310603999       -0.27425123161898
C           18.60559607756735        2.72049724860226        0.55798281510831
C           19.88091531691069        3.30710170359665        0.92496506478356
C           20.82458897494097        2.35198718809733        0.78299031143261
N           18.76033402641131        1.44648642929928        0.22026481696136
C           20.08232996472153        1.19270150235238        0.33748075800740
C           20.56628273337912       -0.02731581409456       -0.01024876624647
C           19.94956096133387       -1.20938160004804       -0.44590219011913
C           20.56636559193019       -2.25781534248674       -1.11414708310585
C           19.58351045137895       -3.23305438060905       -1.26656509848901
C           18.42128544021338       -2.75173999636490       -0.67780503231177
N           18.64055586172338       -1.47586551084503       -0.17973898822436
C           17.19397398872429       -3.49111750439430       -0.56831489071290
C           17.22200889660001       -4.97187371946168       -0.73524866519731
C           17.95302588550452       -5.75882412113274        0.16064390563353
C           17.99439856494972       -7.13959758965230        0.00708475713565
C           17.31171274843863       -7.75302336001957       -1.03771493422897
C           16.56585252784532       -6.98413736368751       -1.95020955508278
C           15.84237243100199       -7.67032077964821       -3.07174198750727
O           15.13463223540995       -6.87512747366951       -3.92405627457325
O           15.88398666583088       -8.86551471923763       -3.21096862868345
C           16.52922823011064       -5.59545978697026       -1.78024510318170
C           15.99748042710807       -2.87891175353178       -0.31287622710801
C           14.71225650971139       -3.51676304143269       -0.13957542050833
C           13.81184279027519       -2.52683024403477        0.03071711259033
C           14.52838961045208       -1.27224329888853       -0.02723773696394
N           15.82710597368227       -1.49350174943217       -0.21929151464183
H           12.83709054200735        0.03717596516267        0.06436269604630
H           12.84284649316546        2.66019230826977        0.19623388388182
H           14.66489055656418        4.48396541844104        0.43560323857245
H           16.47358803583599        4.81524992245119        2.67221418358636
H           16.12000046290542        9.20715866141191        4.28131487689494
H           17.52406546157281        8.71084708827304        1.16431260912958
H           18.39038744336804        7.67112352728009       -0.88984319697393
H           18.30584140148065        5.22377222455972       -1.18740300480477
H           20.05906899577113        4.31010445640426        1.26281286425225
H           21.88457645431232        2.48392664722036        0.98078079020118
H           21.59466437583842       -2.30355123846436       -1.44255248666426
H           19.67908947777922       -4.19054044888677       -1.74498978551406
H           18.48715825706316       -5.29098656588204        0.98273018347783
H           18.57096328675035       -7.73919232263603        0.70774530799189
H           17.36608915732809       -8.83333300313025       -1.13602752704241
H           14.65758935361699       -7.31962125585777       -4.66092026842337
H           15.96928660427803       -4.98845798655007       -2.48260565029852
H           14.49197214725861       -4.57469087072358       -0.13825837923508
H           12.75605684952898       -2.65584697016787        0.18798675666939
Zn          27.68316981744900        0.10324485986624        0.02199205862213
C           31.02204014801411       -0.02416865342684        0.06447663106913
C           30.36480749095945       -1.18993787509486       -0.22961907908198
C           31.03611065966557       -2.42407082445047       -0.58084732316529
C           30.08807346689282       -3.35659289485253       -0.76859883932750
C           28.80017459087561       -2.72952687977901       -0.52635979080591
N           28.99804431416747       -1.39452512394701       -0.20954200842542
C           27.58776312989341       -3.38329001252491       -0.58568849936897
C           27.56492258517611       -4.83569908427989       -0.89762906446272
C           28.05922855508323       -5.77508592174282        0.01237344319234
C           28.01376984301086       -7.15106383066122       -0.27462183457876
C           28.54707205249594       -8.13144152460160        0.72691754336870
O           28.47383452392102       -9.45144609591092        0.39177479629384
O           29.01837297043954       -7.77058101774469        1.77444426533671
C           27.46570503443117       -7.56034301255565       -1.49480396851286
C           26.97618323996619       -6.62797264114598       -2.40117184432551
C           27.02089343251123       -5.27136250538138       -2.10902826688558
C           26.33729460809925       -2.75370870332330       -0.35991424183422
C           25.06197533401528       -3.42793298303517       -0.20434421842693
C           24.11830136554072       -2.47874736472752       -0.02701145975743
N           26.18255643312607       -1.43922012571027       -0.26360066313642
C           24.86056063163981       -1.23754941918110       -0.07001538712785
C           24.37660816508565        0.02916469743541       -0.00077815880317
C           24.99333006164982        1.28868192656176       -0.02703477250258
C           24.37652534251015        2.49774330405119       -0.31674983858362
C           25.35938044606172        3.46935953831749       -0.14272543823452
C           26.52160544857136        2.82232655760614        0.25683668724720
N           26.30233513333469        1.45377323348063        0.31149386478312
C           27.74891692386368        3.48555120847403        0.60151070054816
C           27.72088208007718        4.93977115172818        0.92670412331329
C           26.98986510502774        5.39145584296319        2.03028712334799
C           26.94849248332241        6.74679852675498        2.33551135071665
C           27.63117825066356        7.66746974812370        1.54794372361088
C           28.37703847515685        7.23827662409354        0.43455921640410
C           29.10051850877552        8.25275527822682       -0.40181184993088
O           29.80825867316436        7.77906409832765       -1.46688890042888
O           29.05890425127519        9.42799345029653       -0.14357216616539
C           28.41366277088637        5.87011086773575        0.14226503987949
C           28.94541022127487        2.82350926110534        0.64328753163156
C           30.23063435420765        3.36994690848649        1.01516597129284
C           31.13104805064884        2.37861026687009        0.85324612219099
C           30.41450105587520        1.21154466646607        0.38923596720183
N           29.11578499831113        1.48334631669514        0.27985652991151
H           32.10580033647746       -0.05613687286041        0.04871633673325
H           32.10004385590129       -2.57870641360375       -0.68220774550247
H           30.27800025310699       -4.38080897803067       -1.05081370507581
H           28.46930290275481       -5.42351835748373        0.95541023902568
H           28.82289048148226      -10.10007970916885        1.04393904178413
H           27.41882545907758       -8.61420125544064       -1.74069558691026
H           26.55250352387799       -6.96131265296105       -3.34336313916539
H           26.63704973307311       -4.55075673235038       -2.82636475626235
H           24.88382104194978       -4.48627816034503       -0.21213640982124
H           23.05831386035804       -2.66798680652129        0.11692478059928
H           23.34822668890443        2.64809789838931       -0.61227598854633
H           25.26380140826109        4.53053129919184       -0.28266827617218
H           26.45573266196175        4.68105537294198        2.65480996047755
H           26.37192784326772        7.08505629247914        3.19342797845819
H           27.57680180994875        8.72076152805051        1.80738692729557
H           30.28530164680656        8.43959925791409       -2.01846520703306
H           28.97360460452019        5.52540589621053       -0.71967430557388
H           30.45091879158860        4.36958354896389        1.36148873122651
H           32.18683402798476        2.44927177714908        1.04399720137544
C           21.86559881431237       -0.01696312299560       -0.00689042039475
C           23.07729209554512        0.01828285524478       -0.00098044843792
126
 energy: -233.150404754311 gnorm: 0.083744486326 xtb: 6.5.1 (b24c23e)
Zn          17.25299483360855       -0.08892643314896       -0.00507359615073
C           13.91865233511007       -0.01019830057638        0.06875520950261