130
 energy: -247.230854261422 gnorm: 1.616640956743 xtb: 6.5.1 (b24c23e)
C           10.03594000000000       -0.01898700000000       -0.14472600000000
C           10.76825500000000       -1.38408200000000        0.03310300000000
C           10.16817300000000       -2.62220000000000        0.05687200000000
C           11.19156100000000       -3.57504900000000        0.29931900000000
C           12.38122400000000       -2.88396100000000        0.42405300000000
N           12.11821700000000       -1.55509500000000        0.20484900000000
C           13.79835800000000       -3.49538300000000        0.78160800000000
C           13.83116000000000       -4.88218900000000        1.29744400000000
C           14.13254900000000       -5.94663900000000        0.43679300000000
C           14.15750900000000       -7.25678400000000        0.91763000000000
C           13.87615900000000       -7.49622800000000        2.26984500000000
N           13.89985100000000       -8.87102700000000        2.78122200000000
O           14.16930100000000       -9.78458400000000        1.98559400000000
O           13.64712900000000       -9.05114200000000        3.98277400000000
C           13.57177400000000       -6.44007700000000        3.13969500000000
C           13.55029100000000       -5.13422200000000        2.64692000000000
C           14.92922000000000       -2.74937900000000        0.66398200000000
C           16.22866000000000       -3.26165000000000        1.04904300000000
C           17.13154800000000       -2.30907200000000        0.84769200000000
N           15.12907400000000       -1.46788900000000        0.22500500000000
C           16.45777700000000       -1.14277300000000        0.31249200000000
C           17.12616900000000       -0.00096100000000       -0.00067200000000
C           16.35053900000000        1.24209500000000       -0.60789700000000
C           16.89062400000000        2.23069200000000       -1.40667400000000
C           15.86468700000000        3.17119800000000       -1.67456600000000
C           14.72548600000000        2.72525700000000       -1.03906100000000
N           15.01648900000000        1.52244500000000       -0.44054100000000
C           13.31737000000000        3.45181300000000       -1.01813000000000
C           13.29164400000000        4.91486000000000       -1.22672200000000
C           12.93011500000000        5.44582100000000       -2.47270100000000
C           12.91487000000000        6.82699100000000       -2.67386100000000
C           13.26787900000000        7.67732700000000       -1.61699300000000
N           13.25366600000000        9.12990300000000       -1.82159000000000
O           12.93912000000000        9.55765300000000       -2.94341100000000
O           13.55773000000000        9.85734400000000       -0.86323400000000
C           13.63456100000000        7.15841100000000       -0.36771200000000
C           13.64543800000000        5.77518800000000       -0.17919600000000
C           12.18887600000000        2.73271600000000       -0.78760900000000
C           10.86649200000000        3.33180900000000       -0.74239800000000
C            9.97927500000000        2.36834900000000       -0.51252500000000
C           10.70063000000000        1.12562100000000       -0.38978400000000
N           12.02267700000000        1.39667500000000       -0.55479300000000
H            8.95726200000000       -0.00405900000000       -0.04404500000000
H            9.11400400000000       -2.81583400000000       -0.06922200000000
H           11.06725400000000       -4.64270900000000        0.39697000000000
H           12.81423200000000       -0.81405200000000        0.17594300000000
H           14.35161600000000       -5.73450600000000       -0.60857100000000
H           14.39720800000000       -8.06335700000000        0.23046000000000
H           13.35230700000000       -6.60766900000000        4.19041900000000
H           13.31878800000000       -4.29711200000000        3.30378000000000
H           16.43958300000000       -4.23916600000000        1.44359900000000
H           18.18212300000000       -2.40947300000000        1.05088400000000
H           17.91270400000000        2.27903600000000       -1.75068600000000
H           15.95042600000000        4.07334500000000       -2.26086900000000
H           14.33379300000000        0.91305400000000        0.00234200000000
H           12.65686300000000        4.76466200000000       -3.27725900000000
H           12.62708500000000        7.21224800000000       -3.64798200000000
H           13.91138600000000        7.80277300000000        0.46203000000000
H           13.92600600000000        5.34954500000000        0.78303600000000
H           10.63556700000000        4.37361900000000       -0.87033200000000
H            8.91477200000000        2.48822800000000       -0.42264900000000
C           35.26426200000000       -0.05943500000000       -0.13355300000000
C           34.53194700000000        1.20337800000000       -0.68165000000000
C           35.13202900000000        2.27813900000000       -1.29678300000000
C           34.10864100000000        3.22033000000000       -1.57781600000000
C           32.91897800000000        2.69126000000000       -1.11603000000000
N           33.18198500000000        1.43830100000000       -0.62203900000000
C           31.50184400000000        3.39952100000000       -1.12302000000000
C           31.46904300000000        4.85446800000000       -1.39218200000000
C           31.16765400000000        5.32620900000000       -2.67718600000000
C           31.14269400000000        6.69739900000000       -2.93703300000000
C           31.42404300000000        7.59699100000000       -1.89946100000000
N           31.40035100000000        9.03934400000000       -2.16628700000000
O           31.13090100000000        9.41496400000000       -3.31803300000000
O           31.65307300000000        9.81068300000000       -1.22756200000000
C           31.72842900000000        7.13709500000000       -0.61082400000000
C           31.74991199999999        5.76345800000000       -0.36342300000000
C           30.37098200000000        2.69891800000000       -0.84104000000000
C           29.07154300000000        3.33620600000000       -0.77352900000000
C           28.16865500000000        2.41534400000000       -0.45736700000000
N           30.17112900000000        1.37380600000000       -0.55997700000000
C           28.84242500000000        1.13969700000000       -0.31801100000000
C           28.17403400000000       -0.00096100000000       -0.00067200000000
C           28.94966400000000       -1.37945100000000        0.11627100000000
C           28.40957900000000       -2.63788800000000       -0.06179200000000
C           29.43551600000000       -3.58254600000000        0.19106900000000
C           30.57471600000000       -2.87362900000000        0.50755900000000
N           30.28371400000000       -1.53414400000000        0.40380200000000
C           31.98283200000000       -3.48641900000000        0.89846700000000
C           32.00855800000000       -4.84908600000000        1.47044200000000
C           32.37008700000000       -5.94432800000000        0.67368000000000
C           32.38533200000000       -7.23291300000000        1.21000600000000
C           32.03232400000000       -7.42018000000000        2.55349900000000
N           32.04653600000000       -8.77181100000000        3.12352700000000
O           32.36108200000000       -9.71474500000000        2.38034000000000
O           31.74247200000000       -8.90417600000000        4.31939400000000
C           31.66564100000000       -6.33358100000000        3.35927700000000
C           31.65476500000000       -5.04972400000000        2.81104700000000
C           33.11132700000000       -2.75095800000000        0.72718500000000
C           34.43371100000000       -3.24189700000000        1.07350300000000
C           35.32092700000000       -2.29705500000000        0.77623200000000
C           34.59957199999999       -1.16753300000000        0.24367100000000
N           33.27752600000000       -1.48485400000000        0.24119200000000
H           36.34294000000000       -0.02056600000000       -0.03948500000000
H           36.18619799999999        2.37959300000000       -1.50439100000000
H           34.23294899999999        4.18672600000000       -2.04204700000000
H           32.48597000000000        0.78749600000000       -0.26646400000000
H           30.94858600000000        4.60756400000000       -3.46543400000000
H           30.90299400000000        7.03687700000000       -3.94078500000000
H           31.94789600000000        7.82026500000000        0.20488800000000
H           31.98141500000000        5.38221400000000        0.62999100000000
H           28.86062000000000        4.37764400000000       -0.93668400000000
H           27.11808000000000        2.60580700000000       -0.33452300000000
H           27.38749900000000       -2.85596000000000       -0.33221000000000
H           29.34977700000000       -4.65772600000000        0.15097700000000
H           30.96641000000000       -0.78382800000000        0.47108400000000
H           32.64334000000000       -5.77273700000000       -0.36643800000000
H           32.67311700000000       -8.06356400000000        0.57176400000000
H           31.38881599999999       -6.46066500000000        4.40212100000000
H           31.37419700000000       -4.19051600000000        3.41835400000000
H           34.66463499999999       -4.20165300000000        1.49847600000000
H           36.38543099999999       -2.35380100000000        0.91489900000000
C           18.14973800000000        0.01465800000000        0.01025300000000
C           19.60796400000000       -0.00717800000000       -0.00762000000000
C           20.74189200000000       -0.02793200000000       -0.00911100000000
C           22.10327400000000       -0.04052200000000       -0.01130200000000
C           23.37749300000000       -0.03021600000000       -0.01606700000000
C           24.56595500000000       -0.01141700000000       -0.02222300000000
C           25.91831600000000        0.01336700000000       -0.00635500000000
C           27.01858300000000        0.01465800000000        0.01025300000000
130
 energy: -247.651887444128 gnorm: 0.451487108075 xtb: 6.5.1 (b24c23e)
C           10.05144862085864       -0.04175081422001       -0.14151599354761
C           10.76403223450659       -1.37045234312923        0.03068417899146
C           10.17106598994152       -2.62561812774618        0.05935216809250
C           11.18940849414255       -3.57328485567147        0.30129597956341
C           12.39482097366734       -2.88795346650956        0.42624724323068
N           12.11829741147421       -1.55459099238801        0.20649584898041
C           13.77621051730283       -3.48251494165395        0.77527822403483
C           13.82634646908850       -4.87903574839725        1.29496456172692
C           14.13228222338571       -5.94652552667061        0.43919627494792
C           14.15726924119905       -7.25432719727514        0.91892149370892
C           13.87614315562284       -7.49748729623856        2.27027780785796
N           13.89969428132208       -8.87357111677550        2.78208868530883
O           14.16606542490061       -9.77294276724237        1.99515938265768
O           13.65026094836865       -9.04843235083478        3.96793539816354
C           13.57249080264403       -6.43899568941739        3.13721757590587
C           13.55017118844951       -5.13585173420444        2.64493604839067
C           14.92922069217071       -2.75171998326885        0.66488760474548
C           16.22764412168817       -3.27014793704319        1.05186476373635
C           17.13241861831447       -2.30915737886421        0.84803252596072
N           15.11600696021835       -1.46528211183535        0.22397267104761
C           16.41230555125172       -1.16801824156236        0.32114957999305
C           17.02192527471403        0.01437364553771       -0.01279464311884
C           16.33299971027094        1.24433971028459       -0.61168446944363
C           16.88758371390506        2.23290830016089       -1.40491766933744
C           15.86508439644722        3.17142924825150       -1.67212503257812
C           14.71083187924672        2.73232091156025       -1.03965854566573
N           15.00965678701051        1.52807619194800       -0.43976709495238
C           13.33768799620500        3.43808192895570       -1.01709758594191
C           13.29647755601625        4.91072921522413       -1.22769715191849
C           12.92998411712024        5.44703011158338       -2.47055952363453
C           12.91509484265246        6.82536968632318       -2.67164881140669
C           13.26787993610869        7.67881529076429       -1.61723423715715
N           13.25376500203727        9.13225223607327       -1.82199723251657
O           12.94286577317104        9.55204043106242       -2.92976286071189
O           13.55406780761749        9.84806946037595       -0.87472518617700
C           13.63379140309791        7.15628306767027       -0.36921436024580
C           13.64588646611555        5.77598463620387       -0.18176162760816
C           12.18647064566048        2.72919575187017       -0.78608115312588
C           10.86461234467718        3.33808667431132       -0.74345467808011
C            9.97456350929103        2.37179700991012       -0.51257941477163
C           10.70508414431419        1.12795698723220       -0.38933406502590
N           12.03034594821665        1.39102225215990       -0.55384946971654
H            8.96446932501273       -0.01075520626780       -0.04485247034601
H            9.11587237546145       -2.81742477147837       -0.06883805326993
H           11.06639361324960       -4.64170022712456        0.39679870188234
H           12.81339836717480       -0.81484333527461        0.17617841484930
H           14.35100623965900       -5.73604052069647       -0.60625042384667
H           14.39648747412853       -8.06335198459707        0.23341027232851
H           13.35305652002492       -6.60957616797289        4.18815985892906
H           13.31905744365424       -4.29982324115605        3.30292740661605
H           16.43806630790594       -4.24416421469386        1.44510005915193
H           18.18492251940321       -2.40479858247490        1.04966173070051
H           17.91121221774720        2.27883162733912       -1.74953809397948
H           15.95162546842385        4.07245487579519       -2.26014019605328
H           14.33342414897131        0.91460382042006        0.00202668984477
H           12.65755916176864        4.76712818769610       -3.27598692430376
H           12.62801784609842        7.21364911046112       -3.64548257868945
H           13.91041823796990        7.80341639839772        0.45922726751480
H           13.92563799453621        5.35152152713645        0.78101903860079
H           10.63716255973345        4.37832167479614       -0.87138223321709
H            8.91120437943968        2.48742803059300       -0.42228510285182
C           35.24849671162760       -0.03781507079223       -0.14272277856109
C           34.53638447952446        1.19004525828704       -0.67652086073438
C           35.12921185940005        2.28256940409000       -1.29640387181796
C           34.11108314710216        3.21968433579955       -1.57522273082995
C           32.90523983257148        2.69544728771989       -1.11597976498048
N           33.18171616277104        1.43882984548412       -0.62047134865427
C           31.52403289439689        3.38505318471947       -1.12185638918612
C           31.47389495136323        4.85045511132767       -1.39269708239658
C           31.16789170767468        5.32741262173443       -2.67505271164240
C           31.14289764297423        6.69596065151914       -2.93469077311812
C           31.42405397937060        7.59833106218181       -1.89974269396658
N           31.40049756409818        9.04187107843378       -2.16682818068437
O           31.13413626567324        9.40992588930741       -3.30388571272293
O           31.64995610570540        9.80079328952172       -1.23888831997701
C           31.72772559498783        7.13491597794807       -0.61236679773986
C           31.75005106445257        5.76389480182140       -0.36600191468151
C           30.37097621292577        2.69915455534588       -0.84087900625369
C           29.07101314159683        3.34394549927838       -0.77505854487036
C           28.16651685859217        2.41646457674007       -0.45731784428317
N           30.18453432998762        1.37159476900816       -0.55907536088832
C           28.87960147294659        1.15763432344709       -0.32175983745432
C           28.27270296925625       -0.02216422812657       -0.00291035437166
C           28.96038771539876       -1.37565411532837        0.11452301001750
C           28.41212161321357       -2.63943119816440       -0.05855359079532
C           29.43366874566428       -3.58110608764739        0.19314298037091
C           30.58963959493441       -2.87890034706434        0.51078907875778
N           30.28835949937010       -1.53716175862321        0.40604348518591
C           31.96111271456332       -3.47372722934943        0.89204236291096
C           32.00363574590142       -4.84603369578875        1.46735989157724
C           32.37018272496290       -5.94424440496070        0.67610955096897
C           32.38509475332538       -7.23039029786556        1.21108429931048
C           32.03232276716897       -7.42154655365837        2.55404347043456
N           32.04643288291319       -8.77409129778133        3.12440738226333
O           32.35732699966515       -9.70288823851703        2.38919386666248
O           31.74614732084887       -8.90210772538457        4.30473043041926
C           31.66644066040098       -6.33252658579825        3.35687180532417
C           31.65438573404855       -5.05166162050626        2.80920394447707
C           33.11383844700085       -2.74667515775018        0.72681123950437
C           34.43546985673620       -3.24781814576595        1.07580185415127
C           35.32568454538847       -2.29994952190614        0.77792536566624
C           34.59510191897746       -1.16940475913051        0.24530917554660
N           33.27000184436723       -1.47982631599016        0.23922605418192
H           36.33566104100213       -0.01521265724093       -0.04368328018198
H           36.18437916505376        2.38118673628228       -1.50490070911554
H           34.23385152155191        4.18570975028464       -2.04167647787786
H           32.48656171361922        0.78841998690875       -0.26671644366237
H           30.94919659149853        4.61008310678896       -3.46421488911094
H           30.90371706482203        7.03840237852865       -3.93826231272217
H           31.94714026262321        7.82076156067772        0.20197725822833
H           31.98114079354157        5.38410819373282        0.62785046926598
H           28.86207806676499        4.38250496947243       -0.93792345005645
H           27.11497651416799        2.60220180225386       -0.33330025202935
H           27.38902509653953       -2.85583628482934       -0.33142022262037
H           29.34854024827828       -4.65655038018490        0.15103425519730
H           30.96628283834074       -0.78517184448327        0.47148053726097
H           32.64263441238519       -5.77420556427523       -0.36409180937363
H           32.67218995267779       -8.06348146564166        0.57463198766285
H           31.38977276009064       -6.46264961094236        4.40003066008719
H           31.37455988807980       -4.19323840029539        3.41762320592907
H           34.66299678113067       -4.20621720185951        1.49997356420084
H           36.38900592116803       -2.35291106241508        0.91479584062358
C           18.28913953180669        0.02991645185147        0.00771703327978
C           19.57347639643505       -0.00346217245273       -0.00652714188144
C           20.79584745936127       -0.02849495614474       -0.00862475072710
C           22.08673290804677       -0.04136110020238       -0.01153426294565
C           23.34720470011730       -0.03047857503443       -0.01654943836664
C           24.56687636731453       -0.00943831565545       -0.02245263339023
C           25.83253644531453        0.01034656890931       -0.00466077722343
C           27.02081514964170        0.00098279073810        0.01524168820537
130
 energy: -247.758017475672 gnorm: 0.193639748851 xtb: 6.5.1 (b24c23e)
C           10.09158849360890       -0.07809120736062       -0.13703673593663
C           10.76697743417452       -1.35603870357147        0.02861802872438
C           10.17941131149799       -2.62941138562338        0.06854053744119
C           11.18747917089233       -3.56759240565927        0.30961524754101
C           12.41114355386601       -2.88820241885829        0.42912368909637
N           12.12274362938129       -1.55330504772254        0.20957445168330
C           13.73595648228927       -3.45895656960463        0.76391405226355
C           13.80429349366608       -4.86797547748262        1.28540615129115
C           14.12823992354327       -5.94104440394515        0.44260754453547
C           14.15766129637323       -7.24642229021758        0.92192260818618
C           13.87616563838025       -7.49325672113718        2.26863378582584
N           13.89905632620951       -8.86769398327766        2.77969199315427
O           14.16267151234026       -9.75361374391823        2.00228912017396
O           13.65335128267176       -9.03820322580165        3.94987805857715
C           13.57481264281165       -6.43504016195685        3.13058476672883
C           13.54596439755063       -5.13520920957756        2.63726744136122
C           14.91933098842696       -2.74969304687369        0.66651731661036
C           16.22169800299011       -3.27853250260823        1.05476769130931
C           17.12996649102892       -2.30906513042739        0.84977428276965
N           15.09473448538355       -1.45784628892179        0.23042931460977
C           16.39020010391403       -1.16989235885476        0.32482163981028
C           16.99424860341857        0.04234321819820       -0.04482335493145
C           16.32269764827652        1.22964692467122       -0.60835183550759
C           16.87883293896575        2.23941354262467       -1.39541524198219
C           15.86613822519225        3.17327959347937       -1.66036136527700
C           14.69009783791489        2.73843434659261       -1.03770256623006
N           14.99869892891417        1.53119659681404       -0.43965077383476
C           13.37180976571272        3.41124136259807       -1.01440002644571
C           13.31561407118505        4.89556622070477       -1.23168090655594
C           12.93276971142492        5.44366257344137       -2.46505867014835
C           12.91490384793583        6.81977396049325       -2.66528309089148
C           13.26775704896273        7.67438243368936       -1.61671517548007
N           13.25423454410261        9.12589273818231       -1.82132217402245
O           12.94672943732846        9.53842122978223       -2.91437322805888
O           13.55041152768015        9.83044843912236       -0.88567657800488
C           13.63140785357783        7.14955526793829       -0.37317101473637
C           13.65006395229926        5.77156842420610       -0.18868326757776
C           12.19013558799270        2.72225124112956       -0.77997596292039
C           10.86705898124595        3.34505457823762       -0.74502354610487
C            9.97289459493419        2.37277307445557       -0.51175286997159
C           10.71866513151503        1.12667170261676       -0.38501960354160
N           12.04455031225981        1.38400508736097       -0.54871536234583
H            8.99943609269565       -0.04127365674328       -0.04987256523288
H            9.12449957531301       -2.82257940915674       -0.06654664117867
H           11.06384398244243       -4.63700294219250        0.39710108381850
H           12.81624401959457       -0.81496313937878        0.17691742858469
H           14.34870921825079       -5.73914627227833       -0.60171424099653
H           14.39468252660912       -8.06129030867810        0.24287785620043
H           13.35629328335503       -6.61427821609052        4.18003412375040
H           13.31811078449889       -4.30577523918760        3.30094805485650
H           16.42897456238947       -4.25673261065517        1.44715945248570
H           18.18670088654935       -2.39380482056389        1.04572233840868
H           17.90150286591259        2.28124622175434       -1.74548763570085
H           15.95515634426496        4.06954338818466       -2.25603789520094
H           14.32695358151994        0.91713457732752        0.00211289942167
H           12.65958242751291        4.77197131345893       -3.27376097201072
H           12.63052488115541        7.21634948414163       -3.63640738104267
H           13.90656900239306        7.80367865328670        0.45002994353573
H           13.92633328105684        5.35566493017661        0.77629911401407
H           10.64547596226242        4.38909272179485       -0.87518353061178
H            8.90571770907863        2.48210523245427       -0.42165195859938
C           35.20832866166668       -0.00440456341616       -0.15744758502084
C           34.53333232982076        1.17669547601523       -0.67095239108550
C           35.12086540644261        2.29052337105380       -1.29049499853968
C           34.11340593500164        3.21925463514531       -1.56516798463865
C           32.88927969912942        2.69780936131106       -1.11374215389383
N           33.17732233029670        1.43944431190322       -0.61729176019534
C           31.56692180884584        3.36192562501224       -1.12046103581989
C           31.49661830573261        4.83742680755233       -1.39562466067997
C           31.17198855587354        5.32490146091196       -2.66959683697814
C           31.14246966307197        6.69102858491171       -2.92819813608868
C           31.42403061322174        7.59402375254456       -1.89901306154360
N           31.40115079729537        9.03572818033897       -2.16589600757540
O           31.13752423977026        9.39703299950489       -3.28782939988948
O           31.64684751777434        9.78277410395712       -1.24915578885701
C           31.72539207047882        7.12846358531289       -0.61599970556130
C           31.75438719769401        5.75992856801580       -0.37217518811102
C           30.38451661705688        2.70299636878192       -0.83992472331300
C           29.07961518959127        3.35454348341471       -0.77761752808813
C           28.17510125556320        2.41573176379010       -0.45601337086045
N           30.21929683441445        1.37493126442310       -0.55322024685358
C           28.92591372347378        1.17012009566366       -0.32111780433756
C           28.34754365844345       -0.06334037476921       -0.01706324126773
C           28.98669971194034       -1.36952722612212        0.10741288669043
C           28.42418183204345       -2.64060932594962       -0.04669150039704
C           29.43425499088387       -3.57794813715640        0.20447594617757
C           30.61296472235115       -2.88643139861407        0.51596306871296
N           30.30780409320431       -1.54421489875201        0.40869469539965
C           31.92879500785663       -3.45016173372365        0.88090163754280
C           31.98480836778479       -4.83540477385974        1.45636213057608
C           32.36749733473518       -5.93869232765386        0.67912657875069
C           32.38534803656214       -7.22240989728864        1.21369147400626
C           32.03246379590684       -7.41750957631801        2.55223761531870
N           32.04596041533055       -8.76830201152823        3.12173410554424
O           32.35346467058459       -9.68333772500068        2.39540063747661
O           31.74978305764417       -8.89262060882228        4.28632893616504
C           31.66882497009544       -6.32883017364021        3.35009218001515
C           31.65018493313069       -5.05154597199726        2.80107818050943
C           33.11060249796530       -2.73791430735693        0.72846742984091
C           34.43333501409205       -3.25463314521986        1.07808781631878
C           35.32741906682591       -2.30034274540111        0.77914364874465
C           34.58147455274253       -1.16600029717127        0.24836520508635
N           33.25569698926270       -1.47112476393385        0.24009626884168
H           36.30060454135975        0.00836535816908       -0.06367474438383
H           36.17578551747895        2.38669429661074       -1.50556150064976
H           34.23664869100326        4.18193064511445       -2.03906701946767
H           32.48379882022867        0.78901650199205       -0.26619941386066
H           30.95154242045469        4.61519895517802       -3.46193130586310
H           30.90547339428502        7.04167667461581       -3.92920120714858
H           31.94390800271065        7.82084652716215        0.19264874127414
H           31.98213409221870        5.38832261379433        0.62305443051618
H           28.87071377990381        4.39498427697051       -0.94268858258684
H           27.11665466012957        2.58665937201289       -0.33072394517355
H           27.40018036513420       -2.85353042429456       -0.32619230392062
H           29.34471214774999       -4.65257450215597        0.15316245098479
H           30.97784791540833       -0.78934171276767        0.47361576003848
H           32.64063252546566       -5.77726700706281       -0.35968982937069
H           32.66968615509852       -8.06120420131771        0.58380284436093
H           31.39362398972083       -6.46761752168610        4.39231789690450
H           31.37388987996122       -4.19924869284130        3.41570077665220
H           34.65490177920863       -4.21742574156593        1.50228618858918