      -----------------------------------------------------------      
     |                   =====================                   |     
     |                           x T B                           |     
     |                   =====================                   |     
     |                         S. Grimme                         |     
     |          Mulliken Center for Theoretical Chemistry        |     
     |                    University of Bonn                     |     
      -----------------------------------------------------------      

   * xtb version 6.5.1 (b24c23e) compiled by 'conda@728c89f4b128' on 2022-07-12

   xtb is free software: you can redistribute it and/or modify it under
   the terms of the GNU Lesser General Public License as published by
   the Free Software Foundation, either version 3 of the License, or
   (at your option) any later version.
   
   xtb is distributed in the hope that it will be useful,
   but WITHOUT ANY WARRANTY; without even the implied warranty of
   MERCHANTABILITY or FITNESS FOR A PARTICULAR PURPOSE.  See the
   GNU Lesser General Public License for more details.
   
   Cite this work as:
   * C. Bannwarth, E. Caldeweyher, S. Ehlert, A. Hansen, P. Pracht,
     J. Seibert, S. Spicher, S. Grimme, WIREs Comput. Mol. Sci., 2020, 11,
     e01493. DOI: 10.1002/wcms.1493
   
   for GFN2-xTB:
   * C. Bannwarth, S. Ehlert and S. Grimme., J. Chem. Theory Comput., 2019,
     15, 1652-1671. DOI: 10.1021/acs.jctc.8b01176
   for GFN1-xTB:
   * S. Grimme, C. Bannwarth, P. Shushkov, J. Chem. Theory Comput., 2017,
     13, 1989-2009. DOI: 10.1021/acs.jctc.7b00118
   for GFN0-xTB:
   * P. Pracht, E. Caldeweyher, S. Ehlert, S. Grimme, ChemRxiv, 2019, preprint.
     DOI: 10.26434/chemrxiv.8326202.v1
   for GFN-FF:
   * S. Spicher and S. Grimme, Angew. Chem. Int. Ed., 2020, 59, 15665-15673.
     DOI: 10.1002/anie.202004239
   
   for ALPB and GBSA implicit solvation:
   * S. Ehlert, M. Stahn, S. Spicher, S. Grimme, J. Chem. Theory Comput.,
     2021, 17, 4250-4261. DOI: 10.1021/acs.jctc.1c00471
   
   for DFT-D4:
   * E. Caldeweyher, C. Bannwarth and S. Grimme, J. Chem. Phys., 2017,
     147, 034112. DOI: 10.1063/1.4993215
   * E. Caldeweyher, S. Ehlert, A. Hansen, H. Neugebauer, S. Spicher,
     C. Bannwarth and S. Grimme, J. Chem. Phys., 2019, 150, 154122.
     DOI: 10.1063/1.5090222
   * E. Caldeweyher, J.-M. Mewes, S. Ehlert and S. Grimme, Phys. Chem. Chem. Phys.
     2020, 22, 8499-8512. DOI: 10.1039/D0CP00502A
   
   for sTDA-xTB:
   * S. Grimme and C. Bannwarth, J. Chem. Phys., 2016, 145, 054103.
     DOI: 10.1063/1.4959605
   
   in the mass-spec context:
   * V. Asgeirsson, C. Bauer and S. Grimme, Chem. Sci., 2017, 8, 4879.
     DOI: 10.1039/c7sc00601b
   * J. Koopman and S. Grimme, ACS Omega 2019, 4, 12, 15120-15133.
     DOI: 10.1021/acsomega.9b02011
   
   for metadynamics refer to:
   * S. Grimme, J. Chem. Theory Comput., 2019, 155, 2847-2862
     DOI: 10.1021/acs.jctc.9b00143
   
   for SPH calculations refer to:
   * S. Spicher and S. Grimme, J. Chem. Theory Comput., 2021, 17, 1701-1714
     DOI: 10.1021/acs.jctc.0c01306
   
   with help from (in alphabetical order)
   P. Atkinson, C. Bannwarth, F. Bohle, G. Brandenburg, E. Caldeweyher
   M. Checinski, S. Dohm, S. Ehlert, S. Ehrlich, I. Gerasimov, C. Hölzer
   A. Katbashev, J. Koopman, C. Lavigne, S. Lehtola, F. März, M. Müller,
   F. Musil, H. Neugebauer, J. Pisarek, C. Plett, P. Pracht, F. Pultar,
   J. Seibert, P. Shushkov, S. Spicher, M. Stahn, M. Steiner, T. Strunk,
   J. Stückrath, T. Rose, and J. Unsleber
   
 * started run on 2022/07/30 at 11:17:08.516     

           -------------------------------------------------
          |                Calculation Setup                |
           -------------------------------------------------

          program call               : xtb xtbopt.xyz --gfn 1 --vipea
          hostname                   : cx3-14-28.cx3.hpc.ic.ac.uk
          coordinate file            : xtbopt.xyz
          omp threads                :                     1

   ID    Z sym.   atoms
    1   30 Zn     1, 57
    2    6 C      2-6, 8-11, 13-29, 32-37, 58-62, 64-67, 69-85, 88-93, 113,
                  114
    3    7 N      7, 12, 30, 31, 63, 68, 86, 87
    4    1 H      38-56, 94-112

           -------------------------------------------------
          |                 I P E A - x T B                 |
           -------------------------------------------------

        Reference                      10.1039/c7sc00601b
      * Hamiltonian:
        H0-scaling (s, p, d)           2.150000    2.300000    2.000000
        zeta-weighting                 0.000000
      * Dispersion:
        s8                             2.400000
        a1                             0.630000
        a2                             5.000000
        s9                             0.000000
      * Repulsion:
        kExp                           1.500000
        rExp                           1.000000
      * Coulomb:
        alpha                          1.000000
        third order                    atomic
        anisotropic                    false
      * Halogen bond correction:
        rad-scale                      1.300000
        damping                        0.440000


          ...................................................
          :                      SETUP                      :
          :.................................................:
          :  # basis functions                 454          :
          :  # atomic orbitals                 454          :
          :  # shells                          302          :
          :  # electrons                       346          :
          :  # halogen bonds                     0          :
          :  max. iterations                   250          :
          :  Hamiltonian                  GFN1-xTB          :
          :  restarted?                      false          :
          :  GBSA solvation                  false          :
          :  PC potential                    false          :
          :  electronic temp.          300.0000000     K    :
          :  accuracy                    1.0000000          :
          :  -> integral cutoff          0.2500000E+02      :
          :  -> integral neglect         0.1000000E-07      :
          :  -> SCF convergence          0.1000000E-05 Eh   :
          :  -> wf. convergence          0.2000000E-04 e    :
          :  Broyden damping             0.4000000          :
          ...................................................

 iter      E             dE          RMSdq      gap      omega  full diag
   1   -215.3433836 -0.215343E+03  0.102E+01    1.57       0.0  T
   2   -215.6095482 -0.266165E+00  0.657E+00    1.48       1.0  T
   3   -213.6808360  0.192871E+01  0.473E+00    1.22       1.0  T
   4   -216.3826868 -0.270185E+01  0.142E+00    1.60       1.0  T
   5   -216.9045549 -0.521868E+00  0.326E-01    1.43       1.0  T
   6   -216.9285988 -0.240440E-01  0.102E-01    1.48       1.0  T
   7   -216.9298034 -0.120463E-02  0.557E-02    1.48       1.0  T
   8   -216.9303136 -0.510205E-03  0.258E-02    1.48       1.0  T
   9   -216.9303413 -0.276363E-04  0.922E-03    1.48       1.0  T
  10   -216.9303620 -0.207671E-04  0.262E-03    1.48       3.6  T
  11   -216.9303638 -0.177583E-05  0.792E-04    1.48      11.8  T
  12   -216.9303640 -0.162047E-06  0.310E-04    1.48      30.2  T
  13   -216.9303640 -0.195524E-07  0.905E-05    1.48     103.5  T
  14   -216.9303640 -0.123504E-08  0.362E-05    1.48     259.0  T

   *** convergence criteria satisfied after 14 iterations ***

         #    Occupation            Energy/Eh            Energy/eV
      -------------------------------------------------------------
         1        2.0000           -1.0093711             -27.4664
       ...           ...                  ...                  ...
       167        2.0000           -0.4261698             -11.5967
       168        2.0000           -0.4258897             -11.5890
       169        2.0000           -0.4258508             -11.5880
       170        2.0000           -0.3894403             -10.5972
       171        2.0000           -0.3880582             -10.5596
       172        2.0000           -0.3880413             -10.5591
       173        2.0000           -0.3708394             -10.0911 (HOMO)
       174                         -0.3164705              -8.6116 (LUMO)
       175                         -0.3030347              -8.2460
       176                         -0.3030266              -8.2458
       177                         -0.2947058              -8.0194
       178                         -0.2602166              -7.0809
       ...                                ...                  ...
       454                        683.1414064           18589.2239
      -------------------------------------------------------------
                  HL-Gap            0.0543689 Eh            1.4795 eV
             Fermi-level           -0.3436549 Eh           -9.3513 eV

 SCC (total)                   0 d,  0 h,  0 min,  1.570 sec
 SCC setup                      ...        0 min,  0.002 sec (  0.132%)
 Dispersion                     ...        0 min,  0.003 sec (  0.192%)
 classical contributions        ...        0 min,  0.001 sec (  0.083%)
 integral evaluation            ...        0 min,  0.258 sec ( 16.434%)
 iterations                     ...        0 min,  0.700 sec ( 44.567%)
 molecular gradient             ...        0 min,  0.595 sec ( 37.867%)
 printout                       ...        0 min,  0.011 sec (  0.722%)

         :::::::::::::::::::::::::::::::::::::::::::::::::::::
         ::                     SUMMARY                     ::
         :::::::::::::::::::::::::::::::::::::::::::::::::::::
         :: total energy            -212.613792522967 Eh    ::
         :: gradient norm              0.046190765603 Eh/a0 ::
         :: HOMO-LUMO gap              1.479453381860 eV    ::
         ::.................................................::
         :: SCC energy              -216.930364007451 Eh    ::
         :: -> electrostatic           0.157627519293 Eh    ::
         :: repulsion energy           4.420655328126 Eh    ::
         :: dispersion energy         -0.104083843641 Eh    ::
         :: halogen bond corr.         0.000000000000 Eh    ::
         :: add. restraining           0.000000000000 Eh    ::
         :: total charge              -0.000000000000 e     ::
         :::::::::::::::::::::::::::::::::::::::::::::::::::::

           ------------------------------------------------- 
          |        vertical delta SCC IP calculation        |
           ------------------------------------------------- 
   1   -216.5111842 -0.216511E+03  0.176E-01    1.48       0.0  T
   2   -216.5177238 -0.653960E-02  0.121E-01    1.51       1.0  T
   3   -216.5211459 -0.342212E-02  0.833E-02    1.47       1.0  T
   4   -216.5217746 -0.628652E-03  0.423E-02    1.48       1.0  T
   5   -216.5217166  0.579724E-04  0.294E-02    1.47       1.0  T
   6   -216.5218299 -0.113287E-03  0.117E-02    1.48       1.0  T
   7   -216.5218797 -0.497656E-04  0.309E-03    1.48       3.0  T
   8   -216.5218812 -0.158308E-05  0.157E-03    1.48       6.0  T
   9   -216.5218818 -0.563265E-06  0.553E-04    1.48      16.9  T
  10   -216.5218819 -0.755073E-07  0.187E-04    1.48      50.0  T
  11   -216.5218819 -0.683951E-08  0.893E-05    1.48     104.9  T
     SCC iter.                  ...        0 min,  0.548 sec
     gradient                   ...        0 min,  0.592 sec
------------------------------------------------------------------------
empirical IP shift (eV):    4.8455
delta SCC IP (eV):    6.2699
------------------------------------------------------------------------
           ------------------------------------------------- 
          |        vertical delta SCC EA calculation        |
           ------------------------------------------------- 
   1   -217.1702698 -0.217170E+03  0.314E-01    0.42       0.0  T
   2   -217.1962581 -0.259883E-01  0.225E-01    0.21       1.0  T
   3   -217.2060172 -0.975908E-02  0.141E-01    0.30       1.0  T
   4   -217.2076828 -0.166560E-02  0.852E-02    0.25       1.0  T
   5   -217.2077428 -0.599552E-04  0.457E-02    0.26       1.0  T
   6   -217.2080477 -0.304974E-03  0.183E-02    0.25       1.0  T
   7   -217.2081331 -0.853283E-04  0.609E-03    0.26       1.5  T
   8   -217.2081408 -0.771059E-05  0.290E-03    0.26       3.2  T
   9   -217.2081428 -0.199498E-05  0.100E-03    0.26       9.4  T
  10   -217.2081429 -0.186174E-06  0.400E-04    0.26      23.4  T
  11   -217.2081430 -0.178973E-07  0.203E-04    0.26      46.1  T
  12   -217.2081430 -0.619772E-08  0.982E-05    0.26      95.3  T
  13   -217.2081430 -0.109691E-08  0.479E-05    0.26     195.5  T
     SCC iter.                  ...        0 min,  0.646 sec
     gradient                   ...        0 min,  0.590 sec
------------------------------------------------------------------------
empirical EA shift (eV):    4.8455
delta SCC EA (eV):    2.7132
------------------------------------------------------------------------
           -------------------------------------------------
          |                Property Printout                |
           -------------------------------------------------

    * Orbital Energies and Occupations

         #    Occupation            Energy/Eh            Energy/eV
      -------------------------------------------------------------
         1        2.0000           -0.9337636             -25.4090
       ...           ...                  ...                  ...
       162        2.0000           -0.3584052              -9.7527
       163        2.0000           -0.3578730              -9.7382
       164        2.0000           -0.3573133              -9.7230
       165        2.0000           -0.3572320              -9.7208
       166        2.0000           -0.3547841              -9.6542
       167        2.0000           -0.3526073              -9.5949
       168        2.0000           -0.3525180              -9.5925
       169        2.0000           -0.3501667              -9.5285
       170        2.0000           -0.3145463              -8.5592
       171        2.0000           -0.3124244              -8.5015
       172        2.0000           -0.3124066              -8.5010
       173        2.0000           -0.2950019              -8.0274
       174        0.9904           -0.2390780              -6.5056 (HOMO)
       175        0.0048           -0.2296162              -6.2482 (LUMO)
       176        0.0048           -0.2296065              -6.2479
       177                         -0.2178346              -5.9276
       178                         -0.1869211              -5.0864
       179                         -0.1792168              -4.8767
       180                         -0.1757169              -4.7815
       181                         -0.1629919              -4.4352
       182                         -0.1580668              -4.3012
       183                         -0.1579364              -4.2977
       184                         -0.1578749              -4.2960
       185                         -0.1578436              -4.2951
       ...                                ...                  ...
       454                        683.2148695           18591.2229
      -------------------------------------------------------------
                  HL-Gap            0.0094618 Eh            0.2575 eV
             Fermi-level           -0.2508581 Eh           -6.8262 eV

  Mulliken/CM5 charges         n(s)   n(p)   n(d)
     1Zn    0.35550  0.68107   0.764  0.881  0.000
     2C    -0.03826 -0.07937   1.079  2.959  0.000
     3C     0.05296  0.11478   1.118  2.829  0.000
     4C    -0.04654 -0.09257   1.086  2.960  0.000
     5C    -0.04090 -0.08651   1.083  2.958  0.000
     6C     0.05076  0.11622   1.107  2.843  0.000
     7N    -0.24408 -0.48784   1.349  3.895  0.000
     8C     0.00421  0.00949   1.092  2.904  0.000
     9C     0.04982  0.11422   1.105  2.846  0.000
    10C    -0.04070 -0.08642   1.077  2.964  0.000
    11C    -0.04063 -0.08643   1.079  2.962  0.000
    12N    -0.24021 -0.48331   1.353  3.888  0.000
    13C     0.05818  0.12433   1.122  2.820  0.000
    14C     0.00534  0.01209   1.080  2.915  0.000
    15C     0.05813  0.12429   1.122  2.820  0.000
    16C    -0.04067 -0.08648   1.078  2.962  0.000
    17C    -0.04071 -0.08646   1.077  2.964  0.000
    18C     0.04982  0.11426   1.105  2.846  0.000
    19C     0.00416  0.00945   1.092  2.904  0.000
    20C     0.00777 -0.00105   1.090  2.902  0.000
    21C    -0.02326 -0.07671   1.079  2.945  0.000
    22C    -0.03026 -0.08606   1.086  2.944  0.000
    23C    -0.03286 -0.08869   1.085  2.948  0.000
    24C    -0.02945 -0.08525   1.086  2.944  0.000
    25C    -0.02222 -0.07567   1.079  2.943  0.000
    26C     0.05081  0.11624   1.107  2.843  0.000
    27C    -0.04086 -0.08652   1.083  2.958  0.000
    28C    -0.04652 -0.09255   1.086  2.960  0.000
    29C     0.05296  0.11475   1.118  2.829  0.000
    30N    -0.24414 -0.48778   1.349  3.895  0.000
    31N    -0.24023 -0.48304   1.352  3.888  0.000
    32C     0.00788 -0.00096   1.090  2.902  0.000
    33C    -0.02324 -0.07664   1.079  2.944  0.000
    34C    -0.03018 -0.08598   1.086  2.944  0.000
    35C    -0.03287 -0.08870   1.085  2.948  0.000
    36C    -0.02946 -0.08526   1.086  2.944  0.000
    37C    -0.02232 -0.07578   1.079  2.944  0.000
    38H     0.01281  0.07164   0.987  0.000  0.000
    39H     0.01968  0.07616   0.980  0.000  0.000
    40H     0.01342  0.07211   0.987  0.000  0.000
    41H     0.01560  0.07446   0.984  0.000  0.000
    42H     0.01634  0.07512   0.984  0.000  0.000
    43H     0.01626  0.07503   0.984  0.000  0.000
    44H     0.01545  0.07432   0.985  0.000  0.000
    45H     0.01730  0.07510   0.983  0.000  0.000
    46H     0.02188  0.07773   0.978  0.000  0.000
    47H     0.02154  0.07737   0.978  0.000  0.000
    48H     0.02330  0.07915   0.977  0.000  0.000
    49H     0.01872  0.07656   0.981  0.000  0.000
    50H     0.01340  0.07213   0.987  0.000  0.000
    51H     0.01971  0.07620   0.980  0.000  0.000
    52H     0.01737  0.07515   0.983  0.000  0.000
    53H     0.02193  0.07778   0.978  0.000  0.000
    54H     0.02156  0.07738   0.978  0.000  0.000
    55H     0.02322  0.07907   0.977  0.000  0.000
    56H     0.01869  0.07644   0.981  0.000  0.000
    57Zn    0.35550  0.68107   0.764  0.881  0.000
    58C    -0.03829 -0.07939   1.079  2.959  0.000
    59C     0.05297  0.11478   1.118  2.829  0.000
    60C    -0.04656 -0.09258   1.086  2.960  0.000
    61C    -0.04089 -0.08651   1.083  2.958  0.000
    62C     0.05075  0.11621   1.107  2.843  0.000
    63N    -0.24409 -0.48785   1.349  3.895  0.000
    64C     0.00422  0.00950   1.092  2.904  0.000
    65C     0.04981  0.11420   1.105  2.846  0.000
    66C    -0.04070 -0.08642   1.077  2.964  0.000
    67C    -0.04063 -0.08644   1.079  2.962  0.000
    68N    -0.24021 -0.48331   1.353  3.888  0.000
    69C     0.05818  0.12434   1.122  2.820  0.000
    70C     0.00532  0.01206   1.080  2.915  0.000
    71C     0.05813  0.12430   1.122  2.820  0.000
    72C    -0.04068 -0.08649   1.078  2.962  0.000
    73C    -0.04070 -0.08645   1.077  2.964  0.000
    74C     0.04981  0.11425   1.105  2.846  0.000
    75C     0.00417  0.00945   1.092  2.904  0.000
    76C     0.00777 -0.00105   1.090  2.902  0.000
    77C    -0.02326 -0.07671   1.079  2.945  0.000
    78C    -0.03026 -0.08606   1.086  2.944  0.000
    79C    -0.03286 -0.08869   1.085  2.948  0.000
    80C    -0.02945 -0.08525   1.086  2.944  0.000
    81C    -0.02221 -0.07567   1.079  2.943  0.000
    82C     0.05080  0.11623   1.107  2.843  0.000
    83C    -0.04085 -0.08651   1.083  2.958  0.000
    84C    -0.04653 -0.09257   1.086  2.960  0.000
    85C     0.05297  0.11475   1.118  2.829  0.000
    86N    -0.24415 -0.48779   1.349  3.895  0.000
    87N    -0.24024 -0.48304   1.352  3.888  0.000
    88C     0.00788 -0.00096   1.090  2.902  0.000
    89C    -0.02324 -0.07664   1.079  2.944  0.000
    90C    -0.03018 -0.08598   1.086  2.944  0.000
    91C    -0.03287 -0.08870   1.085  2.948  0.000
    92C    -0.02946 -0.08526   1.086  2.944  0.000
    93C    -0.02232 -0.07578   1.079  2.944  0.000
    94H     0.01281  0.07164   0.987  0.000  0.000
    95H     0.01968  0.07616   0.980  0.000  0.000
    96H     0.01342  0.07211   0.987  0.000  0.000
    97H     0.01559  0.07446   0.984  0.000  0.000
    98H     0.01634  0.07512   0.984  0.000  0.000
    99H     0.01626  0.07503   0.984  0.000  0.000
   100H     0.01545  0.07432   0.985  0.000  0.000
   101H     0.01730  0.07510   0.983  0.000  0.000
   102H     0.02188  0.07773   0.978  0.000  0.000
   103H     0.02154  0.07737   0.978  0.000  0.000
   104H     0.02330  0.07915   0.977  0.000  0.000
   105H     0.01872  0.07656   0.981  0.000  0.000
   106H     0.01340  0.07213   0.987  0.000  0.000
   107H     0.01971  0.07620   0.980  0.000  0.000
   108H     0.01737  0.07515   0.983  0.000  0.000
   109H     0.02193  0.07778   0.978  0.000  0.000
   110H     0.02156  0.07738   0.978  0.000  0.000
   111H     0.02322  0.07907   0.977  0.000  0.000
   112H     0.01869  0.07644   0.981  0.000  0.000
   113C    -0.03587 -0.03805   1.069  2.967  0.000
   114C    -0.03585 -0.03804   1.069  2.967  0.000

Wiberg/Mayer (AO) data.
largest (>0.10) Wiberg bond orders for each atom

 ---------------------------------------------------------------------------
     #   Z sym  total        # sym  WBO       # sym  WBO       # sym  WBO
 ---------------------------------------------------------------------------
     1  30 Zn   2.436 --    30 N    0.569     7 N    0.569    12 N    0.566
                            31 N    0.564
     2   6 C    3.775 --    29 C    1.381     3 C    1.381    38 H    0.999
     3   6 C    3.944 --     2 C    1.381     7 N    1.286     4 C    1.201
     4   6 C    3.838 --     5 C    1.637     3 C    1.201    39 H    0.996
     5   6 C    3.834 --     4 C    1.637     6 C    1.209    40 H    1.002
     6   6 C    3.909 --     8 C    1.371     7 N    1.268     5 C    1.209
     7   7 N    2.987 --     3 C    1.286     6 C    1.268     1 Zn   0.569
     8   6 C    3.831 --     6 C    1.371     9 C    1.360    32 C    1.046
     9   6 C    3.896 --     8 C    1.360    12 N    1.261    10 C    1.226
    10   6 C    3.812 --    11 C    1.609     9 C    1.226    41 H    1.001
    11   6 C    3.809 --    10 C    1.609    13 C    1.237    42 H    0.996
    12   7 N    3.004 --    13 C    1.315     9 C    1.261     1 Zn   0.566
    13   6 C    3.912 --    12 N    1.315    14 C    1.278    11 C    1.237
    14   6 C    3.793 --    13 C    1.278    15 C    1.278   113 C    1.236
    15   6 C    3.911 --    31 N    1.315    14 C    1.278    16 C    1.238
    16   6 C    3.809 --    17 C    1.609    15 C    1.238    43 H    0.996
    17   6 C    3.812 --    16 C    1.609    18 C    1.226    44 H    1.001
    18   6 C    3.896 --    19 C    1.358    31 N    1.262    17 C    1.226
    19   6 C    3.831 --    26 C    1.371    18 C    1.358    20 C    1.048
    20   6 C    3.898 --    21 C    1.426    25 C    1.426    19 C    1.048
    21   6 C    3.868 --    22 C    1.447    20 C    1.426    45 H    0.990
    22   6 C    3.911 --    21 C    1.447    23 C    1.441    46 H    0.983
    23   6 C    3.903 --    22 C    1.441    24 C    1.440    47 H    0.985
    24   6 C    3.911 --    25 C    1.448    23 C    1.440    48 H    0.983
    25   6 C    3.868 --    24 C    1.448    20 C    1.426    49 H    0.990
    26   6 C    3.910 --    19 C    1.371    30 N    1.268    27 C    1.210
    27   6 C    3.834 --    28 C    1.637    26 C    1.210    50 H    1.001
    28   6 C    3.838 --    27 C    1.637    29 C    1.201    51 H    0.996
    29   6 C    3.944 --     2 C    1.381    30 N    1.286    28 C    1.201
    30   7 N    2.987 --    29 C    1.286    26 C    1.268     1 Zn   0.569
    31   7 N    3.003 --    15 C    1.315    18 C    1.262     1 Zn   0.564
    32   6 C    3.899 --    37 C    1.427    33 C    1.427     8 C    1.046
    33   6 C    3.868 --    34 C    1.447    32 C    1.427    52 H    0.990
    34   6 C    3.911 --    33 C    1.447    35 C    1.441    53 H    0.983
    35   6 C    3.904 --    34 C    1.441    36 C    1.441    54 H    0.985
    36   6 C    3.911 --    37 C    1.447    35 C    1.441    55 H    0.983
    37   6 C    3.868 --    36 C    1.447    32 C    1.427    56 H    0.990
    38   1 H    1.036 --     2 C    0.999
    39   1 H    1.025 --     4 C    0.996
    40   1 H    1.043 --     5 C    1.002
    41   1 H    1.040 --    10 C    1.001
    42   1 H    1.040 --    11 C    0.996
    43   1 H    1.040 --    16 C    0.996
    44   1 H    1.041 --    17 C    1.001
    45   1 H    1.059 --    21 C    0.990
    46   1 H    1.038 --    22 C    0.983
    47   1 H    1.032 --    23 C    0.985
    48   1 H    1.037 --    24 C    0.983
    49   1 H    1.059 --    25 C    0.990
    50   1 H    1.043 --    27 C    1.001
    51   1 H    1.025 --    28 C    0.996
    52   1 H    1.059 --    33 C    0.990
    53   1 H    1.038 --    34 C    0.983
    54   1 H    1.032 --    35 C    0.985
    55   1 H    1.037 --    36 C    0.983
    56   1 H    1.059 --    37 C    0.990
    57  30 Zn   2.436 --    86 N    0.569    63 N    0.569    68 N    0.566
                            87 N    0.564
    58   6 C    3.775 --    85 C    1.381    59 C    1.381    94 H    0.999
    59   6 C    3.944 --    58 C    1.381    63 N    1.286    60 C    1.201
    60   6 C    3.838 --    61 C    1.637    59 C    1.201    95 H    0.996
    61   6 C    3.834 --    60 C    1.637    62 C    1.209    96 H    1.002
    62   6 C    3.909 --    64 C    1.371    63 N    1.268    61 C    1.209
    63   7 N    2.987 --    59 C    1.286    62 C    1.268    57 Zn   0.569
    64   6 C    3.831 --    62 C    1.371    65 C    1.360    88 C    1.046
    65   6 C    3.896 --    64 C    1.360    68 N    1.261    66 C    1.226
    66   6 C    3.812 --    67 C    1.609    65 C    1.226    97 H    1.001
    67   6 C    3.809 --    66 C    1.609    69 C    1.237    98 H    0.996
    68   7 N    3.004 --    69 C    1.315    65 C    1.261    57 Zn   0.566
    69   6 C    3.912 --    68 N    1.315    70 C    1.278    67 C    1.237
    70   6 C    3.793 --    69 C    1.278    71 C    1.278   114 C    1.236
    71   6 C    3.912 --    87 N    1.315    70 C    1.278    72 C    1.238
    72   6 C    3.809 --    73 C    1.609    71 C    1.238    99 H    0.996
    73   6 C    3.812 --    72 C    1.609    74 C    1.226   100 H    1.000
    74   6 C    3.896 --    75 C    1.358    87 N    1.262    73 C    1.226
    75   6 C    3.831 --    82 C    1.371    74 C    1.358    76 C    1.048
    76   6 C    3.898 --    77 C    1.426    81 C    1.426    75 C    1.048
    77   6 C    3.868 --    78 C    1.447    76 C    1.426   101 H    0.990
    78   6 C    3.911 --    77 C    1.447    79 C    1.441   102 H    0.983
    79   6 C    3.903 --    78 C    1.441    80 C    1.440   103 H    0.985
    80   6 C    3.911 --    81 C    1.448    79 C    1.440   104 H    0.983
    81   6 C    3.868 --    80 C    1.448    76 C    1.426   105 H    0.990
    82   6 C    3.910 --    75 C    1.371    86 N    1.268    83 C    1.210
    83   6 C    3.834 --    84 C    1.637    82 C    1.210   106 H    1.001
    84   6 C    3.838 --    83 C    1.637    85 C    1.201   107 H    0.996
    85   6 C    3.944 --    58 C    1.381    86 N    1.286    84 C    1.201
    86   7 N    2.987 --    85 C    1.286    82 C    1.268    57 Zn   0.569
    87   7 N    3.003 --    71 C    1.315    74 C    1.262    57 Zn   0.564
    88   6 C    3.899 --    93 C    1.427    89 C    1.427    64 C    1.046
    89   6 C    3.869 --    90 C    1.447    88 C    1.427   108 H    0.990
    90   6 C    3.911 --    89 C    1.447    91 C    1.441   109 H    0.983
    91   6 C    3.904 --    90 C    1.441    92 C    1.441   110 H    0.985
    92   6 C    3.911 --    93 C    1.447    91 C    1.441   111 H    0.983
    93   6 C    3.868 --    92 C    1.447    88 C    1.427   112 H    0.990
    94   1 H    1.036 --    58 C    0.999
    95   1 H    1.025 --    60 C    0.996
    96   1 H    1.043 --    61 C    1.002
    97   1 H    1.040 --    66 C    1.001
    98   1 H    1.040 --    67 C    0.996
    99   1 H    1.040 --    72 C    0.996
   100   1 H    1.041 --    73 C    1.000
   101   1 H    1.059 --    77 C    0.990
   102   1 H    1.038 --    78 C    0.983
   103   1 H    1.032 --    79 C    0.985
   104   1 H    1.037 --    80 C    0.983
   105   1 H    1.059 --    81 C    0.990
   106   1 H    1.043 --    83 C    1.001
   107   1 H    1.025 --    84 C    0.996
   108   1 H    1.059 --    89 C    0.990
   109   1 H    1.038 --    90 C    0.983
   110   1 H    1.032 --    91 C    0.985
   111   1 H    1.037 --    92 C    0.983
   112   1 H    1.059 --    93 C    0.990
   113   6 C    3.756 --   114 C    2.587    14 C    1.236
   114   6 C    3.756 --   113 C    2.587    70 C    1.236
 ---------------------------------------------------------------------------

Topologies differ in total number of bonds
Writing topology from bond orders to xtbtopo.mol

 dipole moment from electron density (au)
     X       Y       Z   
 -39.2495  -0.0012   0.0508  total (Debye):   99.762


           -------------------------------------------------
          | TOTAL ENERGY             -212.891571488333 Eh   |
          | GRADIENT NORM               0.067573503676 Eh/α |
          | HOMO-LUMO GAP               0.257468390049 eV   |
           -------------------------------------------------
########################################################################
[WARNING] Runtime exception occurred
-1- restart_readRestart: Dimension missmatch in restart file.
########################################################################

------------------------------------------------------------------------
 * finished run on 2022/07/30 at 11:17:13.286     
------------------------------------------------------------------------
 total:
 * wall-time:     0 d,  0 h,  0 min,  4.770 sec
 *  cpu-time:     0 d,  0 h,  0 min,  4.743 sec
 * ratio c/w:     0.994 speedup
 SCF:
 * wall-time:     0 d,  0 h,  0 min,  4.503 sec
 *  cpu-time:     0 d,  0 h,  0 min,  4.479 sec
 * ratio c/w:     0.995 speedup

