124
 energy: -238.368659499052 gnorm: 1.588539375838 xtb: 6.5.1 (b24c23e)
Zn          16.00954900000000        0.02909100000000        0.00197400000000
C           12.67280300000000       -0.09590600000000       -0.07572200000000
C           13.33600000000000       -1.24724000000000       -0.21844100000000
C           12.68529300000000       -2.54577100000000       -0.34447500000000
C           13.62578200000000       -3.45887800000000       -0.49890500000000
C           14.93120000000000       -2.78424600000000       -0.49007600000000
N           14.75419400000000       -1.37948000000000       -0.30271900000000
C           16.12366800000000       -3.39430500000000       -0.65269000000000
C           16.17105200000000       -4.85619900000000       -0.88194400000000
C           16.68635300000000       -5.70563800000000        0.10615600000000
C           16.74511300000000       -7.08472100000000       -0.11128700000000
C           16.29232600000000       -7.63688200000000       -1.32402700000000
N           16.34819000000000       -9.05707200000000       -1.55066800000000
O           15.90374000000000       -9.59435700000000       -2.73756600000000
O           16.78782600000000       -9.82531200000000       -0.66955500000000
C           15.78308300000000       -6.77833500000000       -2.31436300000000
C           15.72504700000000       -5.39914200000000       -2.09563100000000
C           17.41668100000000       -2.66111500000000       -0.62357700000000
C           18.70326200000000       -3.26020600000000       -1.00013600000000
C           19.63760500000000       -2.34569100000000       -0.83591600000000
N           17.55743100000000       -1.42717200000000       -0.24597000000000
C           18.95462200000000       -1.15179700000000       -0.35228300000000
C           19.54804100000000        0.00022600000000        0.00006400000000
C           18.78474700000000        1.17516400000000        0.47775500000000
C           19.31717700000000        2.18803800000000        1.14975900000000
C           18.27358700000000        3.17705300000000        1.33788900000000
C           17.17310300000000        2.70459600000000        0.76373700000000
N           17.40600700000000        1.41567900000000        0.19283600000000
C           15.89116400000000        3.44976600000000        0.66968600000000
C           15.90865900000000        4.91746300000000        0.88153200000000
C           15.24651600000000        5.48596600000000        1.97979100000000
C           15.28360800000000        6.86731900000000        2.18828700000000
C           15.98796800000000        7.70391800000000        1.30484700000000
N           16.02273800000000        9.12640700000000        1.52151900000000
O           15.41763500000000        9.68011800000000        2.62700100000000
O           16.60646100000000        9.87957200000000        0.71430700000000
C           16.65853000000000        7.12743700000000        0.21005800000000
C           16.62157500000000        5.74554800000000        0.00319500000000
C           14.72904300000000        2.82364600000000        0.40248900000000
C           13.41888000000000        3.45656200000000        0.25944500000000
C           12.55742700000000        2.47701800000000        0.06627600000000
C           13.30883800000000        1.22288400000000        0.07092200000000
N           14.57535300000000        1.41263600000000        0.26524800000000
H           11.58932100000000       -0.12408600000000       -0.06987600000000
H           11.62114900000000       -2.74364700000000       -0.31533100000000
H           13.43791100000000       -4.51886600000000       -0.61063800000000
H           17.04030900000000       -5.29883700000000        1.04566000000000
H           17.14567900000000       -7.71868100000000        0.66880600000000
H           15.43063700000000       -7.17201300000000       -3.25910900000000
H           15.33374900000000       -4.75324700000000       -2.87196800000000
H           18.87612700000000       -4.26828900000000       -1.35406300000000
H           20.69319800000000       -2.48495600000000       -1.02889300000000
H           20.34377900000000        2.27929000000000        1.47718000000000
H           18.38374200000000        4.13356000000000        1.83304400000000
H           14.70548500000000        4.85745400000000        2.67689800000000
H           14.76166700000000        7.28035400000000        3.04196200000000
H           17.21679900000000        7.74370900000000       -0.48225200000000
H           17.14846199999999        5.31976100000000       -0.84227800000000
H           13.17551000000000        4.51012700000000        0.29978000000000
H           11.49090000000000        2.59529000000000       -0.07390800000000
Zn          29.31553500000000       -0.02724900000000       -0.00898900000000
C           32.65228100000000        0.11776200000000       -0.03414700000000
C           31.98908399999999        1.23860900000000        0.26524900000000
C           32.63979100000000        2.48965900000000        0.63530700000000
C           31.69930200000000        3.39405200000000        0.83452100000000
C           30.39388400000000        2.76533000000000        0.58974600000000
N           30.57089000000000        1.39280200000000        0.23670500000000
C           29.20141599999999        3.39185300000000        0.66774400000000
C           29.15403200000000        4.83305000000000        1.00336600000000
C           28.63873100000000        5.25001900000000        2.23788000000000
C           28.57997100000000        6.61001800000000        2.55340000000000
C           29.03275800000000        7.57662200000000        1.63617800000000
N           28.97689400000000        8.97817800000000        1.95858500000000
O           29.42134400000000        9.92130100000000        1.05974200000000
O           28.53725800000000        9.35998600000000        3.06347200000000
C           29.54200100000000        7.15204800000000        0.39617600000000
C           29.60003700000000        5.79146300000000        0.08180900000000
C           27.90840300000000        2.70123900000000        0.41981700000000
C           26.62182200000000        3.39781600000000        0.29536500000000
C           25.68747900000000        2.48844600000000        0.10469900000000
N           27.76765300000000        1.41573600000000        0.30719600000000
C           26.37046200000000        1.20031500000000        0.10538500000000
C           25.77704300000000        0.00022600000000        0.00006400000000
C           26.54033700000000       -1.26810500000000        0.00235000000000
C           26.00790700000000       -2.45905500000000        0.24554000000000
C           27.05149700000000       -3.44645400000000        0.04910300000000
C           28.15198100000000       -2.79318300000000       -0.30600700000000
N           27.91907700000000       -1.38423900000000       -0.35196500000000
C           29.43392000000000       -3.44872100000000       -0.67260400000000
C           29.41642500000000       -4.88877100000000       -1.02654000000000
C           30.07856800000000       -5.82759800000000       -0.22157400000000
C           30.04147600000000       -7.18634700000000       -0.54624000000000
C           29.33711600000000       -7.63065500000000       -1.67891600000000
N           29.30234600000000       -9.03060500000000       -2.01142700000000
O           29.90744900000000       -9.95842800000000       -1.19421700000000
O           28.71862300000000       -9.42614900000000       -3.04215100000000
C           28.66655400000000       -6.68573300000000       -2.47767300000000
C           28.70350900000000       -5.32709900000000       -2.15129300000000
C           30.59604100000000       -2.76809400000000       -0.68553700000000
C           31.90620400000000       -3.30119800000000       -1.05546300000000
C           32.76765700000000       -2.32069000000000       -0.86725000000000
C           32.01624600000000       -1.15979700000000       -0.39269400000000
N           30.74973100000000       -1.40857000000000       -0.28369500000000
H           33.73576300000000        0.14169300000000       -0.01816100000000
H           33.70393500000000        2.66217100000000        0.73651900000000
H           31.88717300000000        4.41860000000000        1.12839100000000
H           28.28477500000000        4.52062200000000        2.95630600000000
H           28.17940500000000        6.90522200000000        3.51428800000000
H           29.89444700000000        7.87124400000000       -0.33203000000000
H           29.99133500000000        5.48378700000000       -0.88007100000000
H           26.44895700000000        4.46505800000000        0.34524900000000
H           24.63188600000000        2.68990900000000       -0.02198000000000
H           24.98130500000000       -2.66641900000000        0.51485700000000
H           26.94134200000000       -4.51883800000000        0.14948200000000
H           30.61959900000000       -5.50632800000000        0.66033900000000
H           30.56341700000000       -7.88934100000000        0.09028100000000
H           28.10828500000000       -6.99745500000000       -3.35055000000000
H           28.17662199999999       -4.61536000000000       -2.77542900000000
H           32.14957400000000       -4.29302000000000       -1.41311400000000
H           33.83418400000000       -2.37776900000000       -1.04155400000000
C           21.92705100000000        0.01239700000000        0.00243100000000
C           20.67478000000000       -0.00678400000000       -0.00191800000000
C           23.24071900000000        0.01163100000000        0.00436300000000
C           24.74385200000000       -0.00678400000000       -0.00191800000000
124
 energy: -238.810810808623 gnorm: 0.511889641163 xtb: 6.5.1 (b24c23e)
Zn          16.01288581265560        0.02814824421440        0.00158342960135
C           12.67360529479134       -0.08251179856809       -0.07437790819458
C           13.34130492516014       -1.24970789880876       -0.21872153831927
C           12.68390141931070       -2.54078770558564       -0.34379823135934
C           13.63278946690496       -3.46105418172128       -0.49967391139612
C           14.92781107465475       -2.77887333791126       -0.48963257575900
N           14.73833055714792       -1.39593006028035       -0.30345643278266
C           16.13603030460069       -3.39241522801176       -0.65358931695084
C           16.17376358010387       -4.85710114477628       -0.88312011263870
C           16.68643355505357       -5.71035461826027        0.10244185963809
C           16.74416079293745       -7.08590141445660       -0.11378675504326
C           16.29126948223574       -7.64067661544720       -1.32784804688926
N           16.34400686114167       -9.07093477236433       -1.56172330236084
O           15.91635066956708       -9.57128539739958       -2.70243598283026
O           16.78069358025809       -9.81106886996936       -0.68411769647716
C           15.78311891106330       -6.77827439572416       -2.31367174794038
C           15.72526565452849       -5.40385771535734       -2.09344783330783
C           17.40963567985204       -2.68014781267507       -0.62664874843079
C           18.69180584028089       -3.27098518608393       -1.00116972624414
C           19.63434272335002       -2.33944531931736       -0.83387448003328
N           17.56073995857609       -1.42930040538854       -0.25047993366275
C           18.92577373924946       -1.17045749660185       -0.35829824434620
C           19.48218632152959        0.00979836142795        0.00531754953201
C           18.75880603616234        1.17736142184086        0.47308375938387
C           19.31608341600830        2.20502313536673        1.15677813406134
C           18.29027430263339        3.17968927904310        1.34150120139563
C           17.16298677940828        2.70018161352401        0.75515964474664
N           17.40644900450878        1.42311625528228        0.19935340696266
C           15.90114641260912        3.44450174843071        0.66948014106027
C           15.91266788324634        4.91608984222696        0.88327355625374
C           15.24751194445244        5.48983789201023        1.97739040572770
C           15.28385440640584        6.86697761233941        2.18750070716926
C           15.98626813065926        7.70765586727001        1.30827950218584
N           16.01845525175010        9.14033423202973        1.53256385068533
O           15.43450831010454        9.65661501571506        2.59397270316652
O           16.59662635435742        9.86552519144322        0.72755783153024
C           16.65691026547878        7.12827103681248        0.21227928169566
C           16.62101264213539        5.74975937092351        0.00675615449786
C           14.72649413130787        2.82307212277441        0.40242046905148
C           13.42444259981977        3.45716934350188        0.26055027822956
C           12.55004434658388        2.46873209047755        0.06490106210117
C           13.29360398545475        1.21636787840314        0.06996554847458
N           14.57447189068941        1.42311727598924        0.26434045400479
H           11.58980607181302       -0.12110246590410       -0.07001221071849
H           11.62122557857768       -2.73911905315971       -0.31476019368581
H           13.44343638529543       -4.51933636517709       -0.61103389513071
H           17.03976782385801       -5.29988493349957        1.04393558856392
H           17.14519398203827       -7.72044005061664        0.66761042388347
H           15.43109858182975       -7.17379186926021       -3.25877242499642
H           15.33444514469496       -4.75432522522249       -2.87068544745014
H           18.87198381989521       -4.27161941328893       -1.35439886212228
H           20.69137421843043       -2.47861137140685       -1.02674676448787
H           20.34344057027199        2.28090867975761        1.47850428806049
H           18.38689195267364        4.13365832590826        1.83442201600764
H           14.70644272014717        4.85847026122359        2.67571420307294
H           14.76224506988300        7.28198967962751        3.04165963242526
H           17.21604431236292        7.74533827078910       -0.48120864732074
H           17.14761090136179        5.32081759266685       -0.84076816423433
H           13.18063300276826        4.50979603211399        0.30038649015995
H           11.48874779931148        2.59153265376743       -0.07448122483204
Zn          29.31245007661293       -0.02607052444172       -0.00895368142669
C           32.65153615022290        0.10471722274972       -0.03796082315170
C           31.98369002772607        1.24105761211519        0.26595097838883
C           32.64116533901444        2.48474707258173        0.63406143484313
C           31.69223264569142        3.39637924510468        0.83464613830897
C           30.39727462422887        2.76050446787497        0.58817177132235
N           30.58688325575594        1.40817297620535        0.24214554488388
C           29.18934888728957        3.39065124016609        0.66617003920403
C           29.15136860361410        4.83432041934988        1.00263921840094
C           28.63863542974449        5.25578764569446        2.23620989201921
C           28.58092276481485        6.61203245848009        2.55153003482393
C           29.03381310734706        7.58159073501155        1.63405939975313
N           28.98107623062006        8.99512633313386        1.95351847013427
O           29.40874809506187        9.88677142533518        1.08363186647550
O           28.54437609902510        9.35225539452706        3.04467073906038
C           29.54196438383680        7.15172259466303        0.39678745652635
C           29.59982939862316        5.79502395385881        0.08560150054944
C           27.91522589359901        2.72137019318890        0.42416065897226
C           26.63440677459935        3.40862302850636        0.29868822364872
C           25.69131845747740        2.48090934776272        0.10415351205843
N           27.76488006548760        1.41961787996999        0.30443759666453
C           26.40401973501678        1.22478820872128        0.10688719701569
C           25.85559972271233       -0.01044510605861        0.00090412182256
C           26.57137165235628       -1.27218783211390       -0.00210084144206
C           26.00948090578179       -2.47712134828831        0.24582586293652
C           27.03543491802358       -3.45049489115685        0.05134610463040
C           28.16204626421003       -2.78645994681674       -0.31226063608641
N           27.91988020355560       -1.39422716465360       -0.34948080744090
C           29.42438197096561       -3.44393674590058       -0.67087601873286
C           29.41244578939005       -4.88814320324229       -1.02444802714651
C           30.07759623527974       -5.83030163853981       -0.22526213557960
C           30.04123664767978       -7.18572569765953       -0.54683610786297
C           29.33881717369187       -7.63543261179770       -1.67713844421740
N           29.30663893277547       -9.04761036131542       -2.00639788569850
O           29.89059541284643       -9.92428349134270       -1.21598914087303
O           28.72842390832563       -9.41810421157098       -3.02464421270400
C           28.66816258094087       -6.68732847054753       -2.47593023838239
C           28.70403480754721       -5.33236222454436       -2.14957312011280
C           30.59852661001285       -2.76768859573060       -0.68532047478973
C           31.90072116514983       -3.30218319703460       -1.05468174471167
C           32.77501783930165       -2.31255789727294       -0.86543241572550
C           32.03145278992372       -1.15330585943061       -0.39110869698226
N           30.75055248681486       -1.41784044722905       -0.28844280917003
H           33.73529368830641        0.13895848178287       -0.01942015574363
H           33.70385251803461        2.65774462426392        0.73534126548085
H           31.88164959352955        4.41919172436650        1.12820172689745
H           28.28530999769017        4.52223815920675        2.95509834824452
H           28.17989242657799        6.90729738620315        3.51383951529494
H           29.89398409004167        7.87276335015522       -0.33105172685241
H           29.99064050079712        5.48430572860727       -0.87847827811986
H           26.45316164255663        4.46832497276764        0.34618045381762
H           24.63381026042256        2.68253517803170       -0.02238856632179
H           24.98165747304980       -2.66790119491561        0.51540693390716
H           26.93818634734022       -4.51947126670879        0.15070522715459
H           30.61864476597664       -5.50682590425285        0.65885850231757
H           30.56283567823243       -7.89074208125738        0.08939017368986
H           28.10904626097760       -6.99935552434284       -3.35020032196231
H           28.17747075662044       -4.61690854524517       -2.77443164321471
H           32.14446929589194       -4.29294912625295       -1.41243526349806
H           33.83633050349700       -2.37408131715080       -1.04067751313405
C           21.97333770093611        0.01584282609575        0.00298517603218
C           20.75064438470616        0.00362207214499       -0.00031902882886
C           23.25979285717409        0.00870185994962        0.00308150506116
C           24.57463496100335       -0.01861259641811       -0.00435504381240
124
 energy: -238.935297462568 gnorm: 0.234493280389 xtb: 6.5.1 (b24c23e)
Zn          16.01552911148929        0.02400050378344       -0.00064747031610
C           12.67501573115514       -0.06545175906031       -0.07270633601636
C           13.34410441411212       -1.25177267047756       -0.21800142638114
C           12.68421840922620       -2.53472060512259       -0.34301300609780
C           13.64196343506090       -3.46276155808065       -0.50088548174731
C           14.92451620403837       -2.77699453593164       -0.48975959113217
N           14.71486677036734       -1.42040931447304       -0.30357457401027
C           16.14914847182609       -3.39263716430901       -0.65571245427788
C           16.17922975163523       -4.86035283465431       -0.88661796564025
C           16.68758874690838       -5.71902593496541        0.09495065526889
C           16.74218428235014       -7.09087833928725       -0.11980174668541
C           16.28912788568721       -7.64172237545371       -1.33319687131788
N           16.33838855997650       -9.07962886532830       -1.57336241038370
O           15.93451245070093       -9.52606337155883       -2.64891823862898
O           16.77290399508225       -9.79060235966569       -0.69963615433511
C           15.78218146071515       -6.78008096695080       -2.31370883571793
C           15.72519895113814       -5.41089164933863       -2.09077198040689
C           17.40027932311427       -2.70814686125231       -0.63046424366377
C           18.67700314106204       -3.28677040390699       -1.00068688222981
C           19.62222326566518       -2.33676502627876       -0.83119393916098
N           17.56469482048750       -1.43677305214231       -0.26271882010601
C           18.90652476991684       -1.17886817250168       -0.36306912275562
C           19.45237516025410        0.02545777798423        0.01383367592683
C           18.73923528408514        1.18099253703099        0.46494730108089
C           19.31420669403636        2.23143393443469        1.16167526391126
C           18.31342813887161        3.18523041858077        1.34130903726965
C           17.15704027183069        2.69953879024019        0.74446468716730
N           17.40722233498721        1.43385131755089        0.21504495477558
C           15.91750652356891        3.43602684832430        0.66835736740048
C           15.92396071344776        4.91230432512013        0.88921977071719
C           15.24980737247290        5.49359020561282        1.97355776105888
C           15.28322782961883        6.86667425377467        2.18635458325616
C           15.98345533324959        7.70780201510855        1.31304994335982
N           16.01351288143029        9.14846505436578        1.54457789475976
O           15.45892928988859        9.61050326589615        2.54350116931483
O           16.58574515212477        9.84490635004054        0.74158317895761
C           16.65340219954590        7.13158572733135        0.21765097010311
C           16.62186573426276        5.75610455256593        0.01462269004918
C           14.72337881614510        2.82086812672847        0.40126039377907
C           13.42926909877960        3.45265088016300        0.26218970814139
C           12.53953477194365        2.45916112691810        0.06483091719604
C           13.27164923218916        1.21045127395962        0.06957207564047
N           14.56992637067401        1.43809278421796        0.25887145922405
H           11.59121653741501       -0.11321418532438       -0.07156148937000
H           11.62182263362308       -2.72767568270327       -0.31334459249132
H           13.45798218026811       -4.52066052793310       -0.61224519532120
H           17.03838996460864       -5.30493539656884        1.03773953553321
H           17.14296155428064       -7.72670943836674        0.66226078363333
H           15.43187111232957       -7.17892878257719       -3.25837551259370
H           15.33610882794069       -4.75782242623603       -2.86716545932101
H           18.86162763339343       -4.28311555811156       -1.35570733546635
H           20.68143036240156       -2.46489806987830       -1.02177652499770
H           20.34188487794089        2.28721482653538        1.48278452705890
H           18.39526207621387        4.13581638058326        1.83863173103057
H           14.70906609294540        4.86102234556426        2.67217119828038
H           14.76346283975731        7.28566501616481        3.04063994997008
H           17.21230184970909        7.75064018345975       -0.47652385543917
H           17.14552849591224        5.32557617957249       -0.83564299333954
H           13.19349335433394        4.50677638169210        0.30170423142846
H           11.48098922148639        2.58320081011779       -0.07580584904780
Zn          29.30833881699812       -0.02140293928452       -0.00952867682214
C           32.65005573634162        0.08832631823554       -0.04279163855586
C           31.98078966689800        1.24263063869429        0.26735676035923
C           32.64071145106967        2.47879340871180        0.63249654702931
C           31.68280675195613        3.39829248277122        0.83410047153787
C           30.40019262553135        2.75831571768049        0.58732603212922
N           30.61007925415243        1.43063712783010        0.25118967660700
C           29.17499688378349        3.39039238774427        0.66416961705308
C           29.14559695554377        4.83817466906796        1.00045924466339
C           28.63749058145131        5.26650934629822        2.23245281021578
C           28.58291874982682        6.61883787445377        2.54777528797202
C           29.03595354519648        7.58452513287603        1.62948620844895
N           28.98670558030390        9.00753831521545        1.94599747928697
O           29.39057382969799        9.82474574444177        1.11630426216217
O           28.55217901450379        9.33907792413459        3.02257070652815
C           29.54288574884372        7.15330718054379        0.39744631794216
C           29.59981468637390        5.80034335638113        0.09074530216763
C           27.92256048494065        2.74592425442027        0.43072025281230
C           26.64784688499417        3.42230883073357        0.30478784441064
C           25.70017495211698        2.47918126526662        0.10555051879638
N           27.75306650330925        1.42790052002404        0.29415929158650
C           26.40763185304700        1.22957145762670        0.10611927887099
C           25.85312030677771       -0.02805419549784        0.00283656973988
C           26.57864510917335       -1.26798362356951       -0.01307361920691
C           26.00859443865322       -2.50372670984600        0.24069346769784
C           27.01135609401907       -3.45474089772337        0.04920735975222
C           28.16688603281713       -2.78004985890663       -0.32200175590986
N           27.91315044304396       -1.40754027249021       -0.33714669838938
C           29.40716285610949       -3.43499735769801       -0.66870678755739
C           29.40099069188181       -4.88663203164323       -1.01741474728837
C           30.07522691137487       -5.83224133208013       -0.23021830840371
C           30.04183807000185       -7.18496851000890       -0.54778268739307
C           29.34162562137097       -7.63733729454368       -1.67276466355251
N           29.31157050698059       -9.05964816026895       -1.99830657450462
O           29.86616481771307       -9.86258897322290       -1.24551495903157
O           28.73933920128948       -9.40423875375526       -3.00387085508150
C           28.67168360741606       -6.69238863096007       -2.47216901884449
C           28.70321204674890       -5.34112614196845       -2.14463867756620
C           30.60144411122270       -2.76492005213975       -0.68561480466049
C           31.89571370262253       -3.29854855802338       -1.05141671874476
C           32.78547049905954       -2.30359887604434       -0.86187570330282
C           32.05334102047096       -1.14767461142000       -0.38924813071415
N           30.75496487361849       -1.42954563935636       -0.29912577740100
H           33.73384754200968        0.13227020969242       -0.02380111157327
H           33.70314538621540        2.64662237972626        0.73236831907114
H           31.86697171195015        4.42078752135682        1.12754548490392
H           28.28667455127012        4.52922195573828        2.95126211145280
H           28.18213840228191        6.91508320520856        3.51119879346722
H           29.89320839724523        7.87731414209020       -0.32873666893578
H           29.98896036734461        5.48618172717693       -0.87389693977363
H           26.46383143801433        4.47928242640390        0.34931482662761
H           24.64214689892400        2.67059280501353       -0.02293899689261
H           24.98206191589335       -2.67734032804390        0.51747562806060
H           26.93004832623053       -4.52270454111738        0.15380114893504
H           30.61600693599904       -5.50783683906379        0.65461108542931
H           30.56161450617686       -7.89373864771700        0.08705712044605
H           28.11279151044335       -7.00601521981181       -3.34782503287457
H           28.17954355689561       -4.62322972487761       -2.77146436693756
H           32.13150322968913       -4.29060690846747       -1.41004598260998
H           33.84404593607748       -2.36583831257361       -1.03876699454751
C           22.01221166928365        0.02278361302736        0.00403375462792
C           20.78746294208477        0.02175528157494        0.00588103954196
C           23.34272009776118        0.00149430391527        0.00105226002204
C           24.51015238928121       -0.03619488693529       -0.00299304017390
124
 energy: -238.935297462745 gnorm: 0.234493293100 xtb: 6.5.1 (b24c23e)
Zn          16.01552911148929        0.02400050378344       -0.00064747031610
C           12.67501573115514       -0.06545175906031       -0.07270633601636
C           13.34410441411212       -1.25177267047756       -0.21800142638114
C           12.68421840922620       -2.53472060512259       -0.34301300609780
C           13.64196343506090       -3.46276155808065       -0.50088548174731
C           14.92451620403837       -2.77699453593164       -0.48975959113217
N           14.71486677036734       -1.42040931447304       -0.30357457401027
C           16.14914847182609       -3.39263716430901       -0.65571245427788