140
 energy: -222.499435805035 gnorm: 3.367895623790 xtb: 6.5.1 (b24c23e)
Ni          15.69796200000000       -0.00506400000000       -0.00639600000000
C           12.33927400000000        0.19819600000000       -0.24170700000000
C           13.00359300000000        1.29903300000000        0.11976900000000
C           12.35394400000000        2.54252200000000        0.51721400000000
C           13.29665900000000        3.41836100000000        0.80736700000000
C           14.60238000000000        2.77759400000000        0.60005500000000
N           14.42321400000000        1.42903700000000        0.16698300000000
C           15.79755200000000        3.37310100000000        0.78632800000000
C           17.09286900000000        2.68164000000000        0.55850700000000
C           18.38963900000000        3.36828300000000        0.55940400000000
C           19.32282300000000        2.46531500000000        0.34233700000000
N           17.22573900000000        1.40739200000000        0.34656100000000
C           18.62919600000000        1.19031100000000        0.19904400000000
C           19.22078500000000        0.00020000000000        0.00005700000000
C           18.46221700000000       -1.26627500000000       -0.14105200000000
C           19.01940600000000       -2.47079900000000       -0.12473700000000
C           17.97217000000000       -3.43638200000000       -0.38471200000000
C           16.83800100000000       -2.76205100000000       -0.53951500000000
C           15.53604800000000       -3.38660000000000       -0.89814800000000
C           15.51098200000000       -4.82839400000000       -1.23271400000000
C           15.44450500000000       -5.24144600000000       -2.57097300000000
C           15.43986400000000       -6.60735600000000       -2.89047800000000
C           15.33408200000000       -7.04722600000000       -4.32080400000000
C           15.46767000000000       -7.55939300000000       -1.85952300000000
C           15.52473300000000       -7.15430100000000       -0.51768200000000
C           15.59147800000000       -8.18488800000000        0.57084900000000
C           15.55627100000000       -5.78590500000000       -0.20921200000000
C           14.38290400000000       -2.69220100000000       -0.91200600000000
C           13.06223300000000       -3.23264200000000       -1.23052900000000
C           12.20698000000000       -2.24813700000000       -1.04109100000000
C           12.97066200000000       -1.08019800000000       -0.60548500000000
N           14.24088100000000       -1.32719000000000       -0.52631800000000
N           17.05822000000000       -1.35683600000000       -0.39253200000000
C           15.84708500000000        4.78336600000000        1.23102900000000
C           15.53160200000000        5.81885700000000        0.33924900000000
C           15.57458700000000        7.15513300000000        0.76253600000000
C           15.25444200000000        8.26414900000000       -0.19600600000000
C           15.97522300000000        7.45324400000000        2.07356400000000
C           16.31625100000000        6.42468600000000        2.96460900000000
C           16.69858300000000        6.74545700000000        4.37927000000000
C           16.23513600000000        5.08980000000000        2.54259100000000
H           11.25632300000000        0.23517600000000       -0.25998500000000
H           11.28933000000000        2.72907500000000        0.57659100000000
H           13.11072500000000        4.43104600000000        1.13999700000000
H           18.56956400000000        4.42519200000000        0.70586700000000
H           20.38506000000000        2.66282800000000        0.28759500000000
H           20.06504500000000       -2.70226200000000        0.02544700000000
H           18.10773200000000       -4.50606800000000       -0.47115700000000
H           15.40042100000000       -4.50003800000000       -3.36077900000000
H           15.83658000000000       -8.02698900000000       -4.46836100000000
H           14.26376100000000       -7.14368100000000       -4.59833000000000
H           15.81860600000000       -6.30857100000000       -4.99493600000000
H           15.44653300000000       -8.61585800000000       -2.10101800000000
H           15.42291500000000       -7.72966800000000        1.57116500000000
H           14.81270800000000       -8.95982400000000        0.40737200000000
H           16.59065600000000       -8.66892800000000        0.56167300000000
H           15.61303800000000       -5.46218900000000        0.82421000000000
H           12.80838300000000       -4.23599600000000       -1.54562700000000
H           11.13538000000000       -2.30964900000000       -1.17826000000000
H           15.24757600000000        5.58335400000000       -0.67978500000000
H           14.76554000000000        9.10800200000000        0.33602700000000
H           14.56325100000000        7.91226100000000       -0.99094900000000
H           16.19172300000000        8.62781500000000       -0.66594100000000
H           16.02103900000000        8.48606000000000        2.39964100000000
H           15.78912100000000        6.75268800000000        5.01428300000000
H           17.18871100000000        7.74034500000000        4.43782000000000
H           17.40990499999999        5.98825100000000        4.77408300000000
H           16.47719800000000        4.28885600000000        3.23150500000000
Ni          28.69966200000000        0.00786400000000        0.00331700000000
C           32.05835100000000        0.17729300000000       -0.25741200000000
C           31.39403100000000       -0.47632800000000       -1.21411700000000
C           32.04368100000000       -1.20420600000000       -2.29782400000000
C           31.10096600000000       -1.72669200000000       -3.05827900000000
C           29.79524500000000       -1.34920800000000       -2.50054600000000
N           29.97441000000000       -0.55786400000000       -1.32584100000000
C           28.60007200000000       -1.69388600000000       -3.02066500000000
C           27.30475600000000       -1.28259200000000       -2.41995000000000
C           26.00798500000000       -1.47458900000000       -3.07920400000000
C           25.07480200000000       -1.01474800000000       -2.27234800000000
N           27.17188500000000       -0.72431900000000       -1.25506300000000
C           25.76842800000000       -0.52220600000000       -1.08762600000000
C           25.17683900000000        0.00020000000000        0.00005700000000
C           25.93540800000000        0.48827200000000        1.17719600000000
C           25.37821900000000        0.80789700000000        2.33865400000000
C           26.42545500000000        1.32638000000000        3.19370600000000
C           27.55962400000000        1.28735500000000        2.50293500000000
C           28.86157700000000        1.80566500000000        3.00297000000000
C           28.88664300000000        2.52834900000000        4.29464700000000
C           28.95311900000000        3.92869400000000        4.31885200000000
C           28.95776100000000        4.61578900000000        5.54183700000000
C           29.06354300000000        6.11202700000000        5.56617100000000
C           28.92995500000000        3.89059400000000        6.74322500000000
C           28.87289200000000        2.48902600000000        6.72766300000000
C           28.80614700000000        1.73039500000000        8.02052400000000
C           28.84135400000000        1.81183600000000        5.49921900000000
C           30.01472100000000        1.62568000000000        2.33215800000000
C           31.33539100000000        2.08205200000000        2.76257400000000
C           32.19064500000000        1.62605200000000        1.86971300000000
C           31.42696200000000        0.88255200000000        0.86919300000000
N           30.15674400000000        0.87526700000000        1.12846000000000
N           27.33940399999999        0.75502200000000        1.19417500000000
C           28.55054000000000       -2.51357600000000       -4.25140200000000
C           28.86602299999999       -1.94528500000000       -5.49420500000000
C           28.82303800000000       -2.72381300000000       -6.65983800000000
C           29.14318200000000       -2.11186500000000       -7.99184300000000
C           28.42240100000000       -4.06600600000000       -6.58122400000000
C           28.08137300000000       -4.63552200000000       -5.34528500000000
C           27.69904200000000       -6.08356000000000       -5.25958800000000
C           28.16248900000000       -3.85860000000000       -4.18063400000000
H           33.14130200000000        0.18455600000000       -0.29801800000000
H           33.10829500000000       -1.31316500000000       -2.46047500000000
H           31.28689900000000       -2.32806900000000       -3.93834700000000
H           25.82806100000000       -1.90946800000000       -4.05357000000000
H           24.01256400000000       -1.01715100000000       -2.47729300000000
H           24.33258000000000        0.72808000000000        2.60277400000000
H           26.28989300000000        1.70716800000000        4.19705000000000
H           28.99720400000000        4.48090300000000        3.38689400000000
H           28.56104400000000        6.52648100000000        6.46613600000000
H           30.13386400000000        6.40543300000000        5.58156100000000
H           28.57901900000000        6.55389900000000        4.66905800000000
H           28.95109100000000        4.41662500000000        7.69071100000000
H           28.97471000000000        0.64289900000000        7.86174800000000
H           29.58491700000000        2.10312400000000        8.71932600000000
H           27.80696800000000        1.87394700000000        8.48287800000000
H           28.78458700000000        0.72914900000000        5.47596400000000
H           31.58924200000000        2.66399300000000        3.63856000000000
H           33.26224500000000        1.77492200000000        1.89061100000000
H           29.15004900000000       -0.90097200000000       -5.55167100000000
H           29.63208500000000       -2.85776800000000       -8.65424600000000
H           29.83437400000000       -1.25038900000000       -7.87514600000000
H           28.20590100000000       -1.76173500000000       -8.47194900000000
H           28.37658500000000       -4.66669400000000       -7.48245100000000
H           28.60850300000000       -6.69548700000000       -5.08976900000000
H           27.20891400000000       -6.41673600000000       -6.19885600000000
H           26.98772000000000       -6.25199000000000       -4.42240900000000
H           27.92042600000000       -4.29733200000000       -3.21957800000000
C           21.46332100000000        0.01237100000000        0.00242300000000
C           20.21105100000000       -0.00681000000000       -0.00192500000000
C           22.77698900000000        0.01160500000000        0.00435600000000
C           24.28012300000000       -0.00681000000000       -0.00192500000000
140
 energy: -223.379291781178 gnorm: 0.550193552958 xtb: 6.5.1 (b24c23e)
Ni          15.69990588830852       -0.00327641386751       -0.00972393149567
C           12.33955899834464        0.18951635419699       -0.24443892159207
C           13.00871112747312        1.30086399083569        0.12065744517666
C           12.35285710612002        2.53923898391707        0.51601821397879
C           13.30130011600741        3.41978455980446        0.80780275519795
C           14.60055712933824        2.77343314554881        0.59918694393923
N           14.41682709640778        1.43353774767087        0.16943561364994
C           15.80491391641992        3.37172942645774        0.78575500774737
C           17.08831239234402        2.69277466559630        0.56094911716800
C           18.38130704702206        3.37336398418620        0.56118040426364
C           19.32249259344032        2.45818467972409        0.34094861083414
N           17.22571925366529        1.40467745370014        0.34458540290538
C           18.60404409712718        1.20668156990590        0.20250376225128
C           19.11315771478724       -0.00658003643457        0.00049263928826
C           18.43960695256704       -1.26672738574988       -0.14316094958304
C           19.01928736160497       -2.48094292655965       -0.12582956178642
C           17.98242524121511       -3.43794264147896       -0.38357497200290
C           16.82917438146847       -2.75636060453892       -0.54100596843750
C           15.54222230039649       -3.38342607435445       -0.89642883137597
C           15.51233695526810       -4.82955895104894       -1.23290680908970
C           15.44459676404964       -5.24283617995538       -2.56960822907519
C           15.43914875122141       -6.60693971923379       -2.88862348204690
C           15.33480115928795       -7.04761660273354       -4.32226841793234
C           15.46780775879838       -7.55700114518212       -1.85909282739348
C           15.52502456432606       -7.15282793945309       -0.51877387355003
C           15.59102259942731       -8.18573443821695        0.57211460138085
C           15.55640830886092       -5.78675604014723       -0.21093870051248
C           14.38209568647784       -2.69081537115021       -0.91182445981058
C           13.06677320252467       -3.23378390810950       -1.23037657811874
C           12.20338532061133       -2.24259268096741       -1.03987186411205
C           12.96179156017487       -1.07440182263363       -0.60416194920518
N           14.24501743894456       -1.32984907059790       -0.52618635658313
N           17.05665208882530       -1.36054327421700       -0.39073415379184
C           15.84827583469243        4.78500406645538        1.23119534715789
C           15.53159842030100        5.81957872772129        0.34118110960114
C           15.57551104884277        7.15387326821124        0.76347518930315
C           15.25342499905858        8.26517940606943       -0.19674113488378
C           15.97510946132297        7.45101987177654        2.07288839144981
C           16.31503982704076        6.42434686902893        2.96316095006798
C           16.69978244011177        6.74577572446784        4.38044174029236
C           16.23517742035693        5.09148793679381        2.54147518231181
H           11.25644997153962        0.23421079958487       -0.26044647019222
H           11.28935979079061        2.72728058960616        0.57597744982602
H           13.11294603049577        4.43119594954391        1.14002188554957
H           18.56773111184025        4.42581428256596        0.70622569703661
H           20.38464827520799        2.66003350541572        0.28714486084644
H           20.06501533050667       -2.70245428346155        0.02550881637698
H           18.10860642157537       -4.50603257753638       -0.47087516357251
H           15.40061159163492       -4.50029951595051       -3.36042133536831
H           15.83497101163204       -8.02483378717474       -4.46816094876945
H           14.26637795012122       -7.14361184152107       -4.59822424422887
H           15.81701869205174       -6.31029284681391       -4.99355487838104
H           15.44660823925635       -8.61544323653971       -2.10094885518178
H           15.42357668469634       -7.73083897816224        1.56864624157542
H           14.81487096661105       -8.95844668932787        0.40791568830793
H           16.58814237362605       -8.66820135524531        0.56202225385264
H           15.61294576001414       -5.46235190940408        0.82375913605910
H           12.81053111568352       -4.23596750510995       -1.54547178204179
H           11.13496104891818       -2.30805850936529       -1.17791149552634
H           15.24761911847732        5.58334885949336       -0.67938739651855
H           14.76702744525220        9.10633017613673        0.33457521765081
H           14.56519305817890        7.91319552193976       -0.98936450878029
H           16.18930060058280        8.62737938100645       -0.66516569899050
H           16.02105069621606        8.48566207832282        2.39952714688768
H           15.79146093311503        6.75278451554649        5.01332356500434
H           17.18724760385097        7.73814962984313        4.43797988837998
H           17.40789587177440        5.98998983538307        4.77349103713124
H           16.47719204579850        4.28910366532493        3.23119887047103
Ni          28.69794238643640        0.01052019702139        0.00061025338546
C           32.05809776010560        0.18237986750528       -0.24975600604259
C           31.38884599780037       -0.47772783838914       -1.21563296413982
C           32.04475235200852       -1.20213069747632       -2.29499201838489
C           31.09629181671971       -1.72753136496772       -3.05950871572586
C           29.79700068692695       -1.34731483486332       -2.49694541368982
N           29.98087415671321       -0.56133474343795       -1.32941024471606
C           28.59290215759015       -1.69293690646335       -3.01958935463862
C           27.30903411102063       -1.28840703593165       -2.43063628065317
C           26.01688500894186       -1.47787730936307       -3.08372625151132
C           25.07524029230619       -1.01111871097829       -2.26501671350167
N           27.17272830722964       -0.72230227622343       -1.25321456365900
C           25.79993517941135       -0.53133427333578       -1.10618485087131
C           25.33003176002362        0.00354928732863        0.00710598209527
C           25.96403563835690        0.49144052662885        1.18046868332637
C           25.37828177804278        0.81164625629289        2.34764156638807
C           26.41544971170046        1.32578096372669        3.19553211241116
C           27.56821944241862        1.28728778554086        2.49727122828474
C           28.85569262461711        1.80318889924441        3.00041827933076
C           28.88527929837271        2.52886108380853        4.29573376400022
C           28.95302560975606        3.92777246577122        4.32055977630363
C           28.95848073834024        4.61390294793070        5.54195982696052
C           29.06282191703679        6.11354020512178        5.56613694841694
C           28.92981694520751        3.88951323475316        6.74104368880067
C           28.87259966526780        2.48966377981751        6.72595966879125
C           28.80660377784670        1.72941361260079        8.02168641596185
C           28.84121053356235        1.81372361624524        5.49955987799840
C           30.01539852070181        1.62514256446748        2.33095728498860
C           31.33092663432868        2.08223191910408        2.76370256241468
C           32.19421710586170        1.62338185429191        1.86478832529214
C           31.43582663158438        0.87961289259404        0.86391327817024
N           30.15261795434102        0.87580607776403        1.13099550277549
N           27.34191443917878        0.75480959749701        1.19852118914843
C           28.54934562188540       -2.51418141952938       -4.25294165048078
C           28.86603071415130       -1.94733534780898       -5.49436135699260
C           28.82211380344125       -2.72436414334922       -6.65837616166949
C           29.14420003809179       -2.11144544977766       -7.99303498656733
C           28.42251499252931       -4.06473565013165       -6.57927211815225
C           28.08258771801648       -4.63404614695961       -5.34536408826316
C           27.69784133235341       -6.08477159652048       -5.25956650416710
C           28.16244098631056       -3.85799382124278       -4.18255573180536
H           33.14117325000583        0.18527769185068       -0.29721712588038
H           33.10825748616017       -1.31207102752534       -2.45891766875139
H           31.28467520229335       -2.32813123669443       -3.93848071391253
H           25.82989237656452       -1.90994161014141       -4.05405861766701
H           24.01296341091519       -1.01580570654921       -2.47446494757443
H           24.33255240077057        0.72798912105371        2.60273384142853
H           26.28899163057981        1.70685014554282        4.19706512718154
H           28.99701382115065        4.48063233121410        3.38724295635750
H           28.56265455500289        6.52568514684739        6.46411927430275
H           30.13124484043632        6.40530900639625        5.58152416534788
H           28.58060701562702        6.55305082789395        4.67109672644416
H           28.95101516505722        4.41644045438033        7.69032706579936
H           28.97404805363645        0.64564501213378        7.86217140002391
H           29.58275170323792        2.10221910650724        8.71815079387298
H           27.80948430085009        1.87341086189808        8.48227415349375
H           28.78468084465776        0.72962493079333        5.47599633983716
H           31.58709757411199        2.66383635788499        3.63857398020303
H           33.26265502790814        1.77414581159275        1.88918449876941
H           29.15000514567979       -0.90135102642200       -5.55155583418169
H           29.63059569883454       -2.85590762699942       -8.65304140862971
H           29.83243124756107       -1.25217129346859       -7.87560218405412
H           28.20832457707259       -1.76236022070697       -8.47131194387458
H           28.37657271349059       -4.66647113243944       -7.48209664363435
H           28.60616249213590       -6.69458961172946       -5.09012921697899
H           27.21037940525720       -6.41627520782679       -6.19670061899413
H           26.98973003242436       -6.25190473223864       -4.42424456697572
H           27.92043141646713       -4.29710793410942       -3.21989929769426
C           21.50591722138889        0.01121249191199        0.00179969583314
C           20.31890545957305       -0.01374276790590       -0.00431668301073
C           22.77225687451066        0.01251801521506        0.00490063092428
C           24.07391084607051       -0.00388520620500        0.00446014939112
140
 energy: -223.483946050822 gnorm: 0.293066635650 xtb: 6.5.1 (b24c23e)
Ni          15.70203121429284        0.01259085594922       -0.04148877681572
C           12.34067439515463        0.17270044463251       -0.24970444382591
C           13.01471563193351        1.29707620817177        0.12268034038731
C           12.35652945532825        2.52979638880255        0.51278213443386
C           13.31424380837407        3.41806185777482        0.80782023432007
C           14.60104223045270        2.76610875923166        0.60100480263245
N           14.40135153313712        1.44361914117616        0.18029632006923
C           15.81524387726421        3.37467121053281        0.78519274840879
C           17.06734966261252        2.72042518008561        0.56903138528764
C           18.35733941842038        3.38684285105448        0.56848152303943
C           19.29876683953521        2.45103036565175        0.34079198948000
N           17.20364403393084        1.41695217833357        0.34015675628824
C           18.56324752640598        1.21689973248121        0.20318905282247
C           19.06787082940004       -0.02887488406165        0.00013893282102
C           18.39736775837030       -1.27025355141852       -0.14662397953693
C           19.00848023271773       -2.50470614607761       -0.13405968844393
C           17.99920828770801       -3.44322486718571       -0.38640360039596
C           16.81439814680412       -2.75200178108731       -0.54310963026387
C           15.55861443882727       -3.37389958892171       -0.89245167884071
C           15.52447924808839       -4.82764404291276       -1.23168498390413
C           15.44622857142314       -5.24407849226708       -2.56390661883880
C           15.43430151012692       -6.60401115145453       -2.88310478619739
C           15.33691256354029       -7.04650048075266       -4.32028029335289
C           15.46830494125265       -7.54947659324093       -1.85724878508359
C           15.52708998994171       -7.14783102472542       -0.52115796507230
C           15.58932318038068       -8.18395874273832        0.57110470804849
C           15.55989483000603       -5.78654567763632       -0.21530769765661
C           14.38551841305356       -2.68189189534578       -0.90880516018028
C           13.07778643845575       -3.22448706339257       -1.22663946387523
C           12.19670295607764       -2.22725435949084       -1.03536907616945
C           12.94579297296656       -1.06421387530131       -0.59908251064134
N           14.24796604853337       -1.33107640874036       -0.52347961446871
N           17.03280940942119       -1.37547524445545       -0.37762349171499
C           15.85487148500962        4.79076102218876        1.23030983331330
C           15.53060289785285        5.82186104393899        0.34627366096380
C           15.57886643718647        7.15138929748176        0.76513624521561
C           15.25175756512903        8.26430686597667       -0.19539644075728
C           15.97452314044044        7.44520391399814        2.07111800981884
C           16.30976509563624        6.42363881965918        2.96074753734548
C           16.70144129355903        6.74568679888768        4.37877856775373
C           16.23751437008442        5.09630123862808        2.53765610550640
H           11.25775948661489        0.22471645570107       -0.26561580624219
H           11.29202610193108        2.71221307110190        0.57030073411976
H           13.13270549523320        4.43076811915638        1.13940645032555
H           18.55179271782915        4.43586037351600        0.71021985954910
H           20.36708548881117        2.63772289133645        0.28414248833695
H           20.05833547808634       -2.70698034284503        0.02406944647261
H           18.11777379105687       -4.51007476928338       -0.46891350705090
H           15.40282149683362       -4.50253104161001       -3.35628522206480
H           15.82785376533673       -8.01700908000418       -4.46698948593565
H           14.27837497197383       -7.14371678595257       -4.59960640690036
H           15.81004615889737       -6.31607827700397       -4.98866163128031
H           15.44743113033550       -8.60923368421971       -2.09964520308415
H           15.42661329646221       -7.73468454299693        1.55899435903229
H           14.82393738589031       -8.95425089362776        0.41017795008674
H           16.57672240523202       -8.66624013353870        0.56446249534932
H           15.61261944425521       -5.46356242824479        0.82002312704016
H           12.83015095003596       -4.22988435723312       -1.54276604577320
H           11.12995887631081       -2.29441916184504       -1.17518888103822
H           15.24775872088622        5.58399985019226       -0.67492192714817
H           14.77346300885623        9.10118391439987        0.32891578183001
H           14.57321830446152        7.91660283183292       -0.98424874420273
H           16.17782983020398        8.62685639245191       -0.66284701021189
H           16.02107804052826        8.48070326358585        2.39800545008133
H           15.80275883641822        6.75358626611377        5.01090174674411
H           17.18089179294622        7.73062121719855        4.43905101573887
H           17.39967612771098        5.99593306330540        4.77198254884428
H           16.47752904571541        4.29245322875382        3.22759173536873
Ni          28.69310300225364        0.03684332617323       -0.02370495603628
C           32.05686097976299        0.19209635566405       -0.23507547371126
C           31.38258072892391       -0.47855198898788       -1.21130847328152
C           32.04080241058956       -1.19636090727485       -2.28672674422654
C           31.08292524854034       -1.72694603183292       -3.05769515833097
C           29.79592113320719       -1.34679850387621       -2.48889478221829
N           29.99582804822694       -0.57443810161825       -1.33560419200499
C           28.58116768796926       -1.69276594817083       -3.02136805962567
C           27.32726003211486       -1.30262242822256       -2.45307745131187
C           26.03893579525230       -1.48852893555460       -3.09466210989567
C           25.09366822735358       -1.01075274499953       -2.26185697942247
N           27.18395207158580       -0.71845417105568       -1.26514146968828
C           25.81752943724051       -0.53446394481512       -1.11353946377406
C           25.32329161966545        0.01162954632700        0.02942749570045
C           25.98924888423603        0.49754504447667        1.17987081797476
C           25.38502490449962        0.82687417872367        2.37089357070990
C           26.39757247692827        1.32979462079603        3.19959900387948
C           27.58163821191859        1.28751607955677        2.49105459805232
C           28.83837607006109        1.79637216920897        2.99179576617401
C           28.87294127499739        2.52699335700451        4.29396200059058
C           28.95136761864512        3.92254147923312        4.32328009506724
C           28.96331739131708        4.60772367723261        5.54063859732903
C           29.06070991272313        6.11128497796531        5.56561773015900
C           28.92931032132243        3.88562282483477        6.73430819814583
C           28.87052321850512        2.49053920472395        6.72042787461273
C           28.80829458254135        1.72988897679776        8.01968091023635
C           28.83769337577126        1.81783680304004        5.49803495046017
C           30.01165930725401        1.61955009548454        2.32293035668331
C           31.31961905630815        2.07593750728557        2.75574292340260
C           32.20073175079650        1.61468451436961        1.85123636647032
C           31.45161437280567        0.87181111774404        0.85550097113684
N           30.14927173423083        0.87333329474127        1.13269310616187
N           27.35812611579077        0.74465978162182        1.21547032290789