306
 energy: -506.007796890312 gnorm: 0.667153027200 xtb: 6.5.1 (b24c23e)
C           46.68108600000000       -0.00771000000000       -0.05692400000000
C           47.40957900000000       -1.26588800000000        0.50768000000000
C           46.80097000000000       -2.43040700000000        0.91739400000000
C           47.82275800000000       -3.28166900000000        1.41224100000000
C           49.02082700000000       -2.60427500000000        1.29438900000000
N           48.76222000000000       -1.39714500000000        0.69470100000000
C           50.44331600000000       -3.10638800000000        1.78392100000000
C           51.57314800000000       -2.43116100000000        1.43907800000000
C           52.87778600000000       -2.82740100000000        1.92826900000000
C           53.78015200000000       -1.97714200000000        1.45296700000000
N           51.76942399999999       -1.32489800000000        0.65461100000000
C           53.10097700000000       -1.00010700000000        0.62462000000000
C           53.76862100000000        0.00239900000000       -0.00647500000000
C           52.99097099999999        1.03527400000000       -0.92716900000000
C           53.53136200000000        1.77066000000000       -1.96413500000000
C           52.50657000000000        2.60429400000000       -2.47698500000000
C           51.36632500000000        2.34693800000000       -1.74630900000000
C           49.95702500000000        3.05265400000000       -1.92972200000000
C           49.92978000000000        4.39097000000000       -2.56259900000000
C           49.55710300000000        4.53614800000000       -3.90489800000000
C           49.54615900000000        5.79815900000000       -4.50183500000000
C           49.91091700000000        6.92259900000000       -3.76030200000000
C           50.28630099999999        6.78591400000000       -2.42310300000000
C           50.29658199999999        5.52348200000000       -1.82662900000000
C           48.83139800000000        2.43136100000000       -1.49050200000000
C           47.50951799999999        3.02011500000000       -1.61358200000000
C           46.62370200000000        2.16799700000000       -1.10615800000000
C           47.34532600000000        1.01322600000000       -0.63015400000000
N           48.66641800000000        1.22104000000000       -0.87620500000000
N           51.65698900000000        1.35297000000000       -0.84167700000000
C           50.48078199999999       -4.29822000000000        2.66477000000000
C           50.22842499999999       -4.16975100000000        4.03570700000000
C           50.25299000000000       -5.29266500000000        4.86494400000000
C           50.52904600000000       -6.55065300000000        4.32728100000000
C           50.78080800000000       -6.68697000000000        2.96137400000000
C           50.75582400000000       -5.56391400000000        2.13242000000000
H           45.60325199999999        0.04065800000000        0.04120200000000
H           45.74260600000000       -2.63715600000000        0.88032500000000
H           47.69557100000000       -4.26844500000000        1.83139300000000
H           49.46343400000000       -0.70775400000000        0.43492200000000
H           53.08886200000000       -3.65886000000000        2.57687200000000
H           54.83368600000000       -2.02745000000000        1.65832800000000
H           54.55327700000000        1.72473000000000       -2.30836500000000
H           52.59108200000000        3.31600200000000       -3.28438200000000
H           49.27286999999999        3.65230100000000       -4.47208100000000
H           49.25187399999999        5.89627200000000       -5.54173100000000
H           49.90212500000000        7.90416200000000       -4.22325900000000
H           50.57133300000000        7.65552200000000       -1.83966900000000
H           50.58760800000000        5.40617900000000       -0.78498700000000
H           47.28167000000000        3.98069500000000       -2.03930800000000
H           45.56019900000000        2.31232100000000       -1.04836200000000
H           50.97369199999999        0.89157000000000       -0.24673100000000
H           50.01610500000000       -3.18396800000000        4.44391600000000
H           50.05774299999999       -5.17837500000000        5.92634800000000
H           50.54970500000000       -7.42322000000000        4.97235700000000
H           50.99860900000000       -7.66149000000000        2.53641600000000
H           50.95377100000000       -5.65678400000000        1.06674600000000
C          121.57217799999999       -0.03890700000000       -0.03715300000000
C          120.84368599999999        1.00877600000000       -0.93389700000000
C          121.45229499999999        1.87640900000000       -1.81206700000000
C          120.43050599999999        2.68730100000000       -2.37061600000000
C          119.23243799999999        2.29155000000000       -1.80835800000000
N          119.49104400000000        1.23393200000000       -0.97275400000000
C          117.80994899999999        2.94858400000000       -2.05344000000000
C          116.68011700000000        2.34849100000000       -1.59004400000000
C          115.37547900000000        2.96002000000000       -1.73953000000000
C          114.47311300000000        2.16723100000000       -1.17354500000000
N          116.48384000000000        1.16683700000000       -0.92453500000000
C          115.15228800000000        1.00106400000000       -0.64362900000000
C          114.48464300000001        0.00239900000000       -0.00647500000000
C          115.26229400000000       -1.27111600000000        0.53451400000000
C          114.72190300000000       -2.52277800000000        0.75684800000000
C          115.74669499999999       -3.34242400000000        1.29177000000000
C          116.88693999999998       -2.57180900000000        1.37096500000000
C          118.29624000000000       -3.03893700000000        1.93084600000000
C          118.32348499999999       -4.18257000000000        2.87091300000000
C          118.69616100000000       -5.45838800000000        2.42917600000000
C          118.70710600000000       -6.53694600000000        3.31558300000000
C          118.34234799999999       -6.34639600000000        4.64897200000000
C          117.96696399999999       -5.07881600000000        5.09621300000000
C          117.95668300000000       -4.00049700000000        4.20922700000000
C          119.42186700000001       -2.37652300000000        1.55651200000000
C          120.74374700000000       -2.73916000000000        2.03638000000000
C          121.62956200000001       -1.91653100000000        1.48242700000000
C          120.90793899999998       -0.99311300000000        0.64137100000000
N          119.58684700000001       -1.30433100000000        0.72425800000000
N          116.59627600000000       -1.32942900000000        0.85830300000000
C          117.77248299999999        4.25392500000000       -2.75518300000000
C          118.02483999999998        5.43882100000000       -2.05376100000000
C          118.00027500000000        6.66806800000000       -2.71521500000000
C          117.72421900000001        6.71889000000000       -4.08234100000000
C          117.47245699999999        5.54189200000000       -4.78871300000000
C          117.49743999999998        4.31284000000000       -4.12700900000000
H          122.65001300000000        0.02918100000000        0.04847600000000
H          122.51065900000000        1.93114800000000       -2.01485400000000
H          120.55769400000000        3.48759100000000       -3.08402300000000
H          118.78983100000001        0.70471600000000       -0.46023600000000
H          115.16440299999998        3.90149900000000       -2.21453300000000
H          113.41957800000000        2.37441600000000       -1.13137000000000
H          113.69998800000000       -2.81445900000000        0.56836200000000
H          115.66218199999999       -4.37637900000000        1.59069300000000
H          118.98039500000000       -5.59398100000000        1.38778400000000
H          119.00139100000000       -7.51920800000000        2.96037900000000
H          118.35114000000000       -7.18407400000000        5.33896600000000
H          117.68193200000000       -4.92244800000000        6.13166600000000
H          117.66565699999998       -3.00846300000000        4.54782300000000
H          120.97159400000000       -3.53421300000000        2.72329200000000
H          122.69306599999999       -1.92587700000000        1.63761200000000
H          117.27957200000000       -0.59444900000000        0.69503800000000
H          118.23715999999999        5.38713800000000       -0.98805400000000
H          118.19552200000000        7.57910700000000       -2.15875300000000
H          117.70355999999998        7.67472800000000       -4.59602300000000
H          117.25465600000000        5.57362100000000       -5.85138400000000
H          117.29949399999998        3.38879700000000       -4.66592300000000
C           60.28606600000000        0.00326900000000        0.00207900000000
C           59.07712699999999       -0.01018600000000       -0.00636800000000
C           57.65559800000000       -0.00136600000000       -0.01835100000000
C           56.44392799999999        0.00607200000000       -0.00748800000000
C           61.70266999999999       -0.00340600000000        0.00261300000000
C           62.92336600000000        0.00607200000000       -0.00748800000000
C           76.58228300000000        0.00326900000000        0.00207900000000
C           75.37334400000000       -0.01018600000000       -0.00636800000000
C           73.95181500000000       -0.00136600000000       -0.01835100000000
C           72.74014499999998        0.00607200000000       -0.00748800000000
C           77.99888700000000       -0.00340600000000        0.00261300000000
C           79.21958300000000        0.00607200000000       -0.00748800000000
C           92.87849999999999        0.00326900000000        0.00207900000000
C           91.66956100000000       -0.01018600000000       -0.00636800000000
C           90.24803199999999       -0.00136600000000       -0.01835100000000
C           89.03636200000000        0.00607200000000       -0.00748800000000
C           94.29510399999999       -0.00340600000000        0.00261300000000
C           95.51579999999998        0.00607200000000       -0.00748800000000
C          109.17471700000000        0.00326900000000        0.00207900000000
C          107.96577799999999       -0.01018600000000       -0.00636800000000
C          106.54424899999999       -0.00136600000000       -0.01835100000000
C          105.33257900000000        0.00607200000000       -0.00748800000000
C          110.59132099999998       -0.00340600000000        0.00261300000000
C          111.81201700000000        0.00607200000000       -0.00748800000000
C           64.25345400000000       -0.00249500000000        0.00546300000000
C           65.04710600000000        1.10732800000000        0.81142300000000
C           64.54038000000000        1.93207000000000        1.79531600000000
C           65.57727900000000        2.82076900000000        2.17855600000000
C           66.68672100000001        2.50596700000000        1.42231200000000
N           66.37576900000001        1.41519200000000        0.64951200000000
C           68.07634600000000        3.26607900000000        1.43095600000000
C           69.21115499999999        2.61223800000000        1.06730300000000
C           70.49808600000000        3.27355300000000        1.00136500000000
C           71.40604700000000        2.38526700000000        0.61168600000000
N           69.41918600000000        1.31358300000000        0.69237500000000
C           70.74369400000000        1.11233100000000        0.40919800000000
C           71.40749200000000       -0.00249500000000        0.00546300000000
C           70.61385600000000       -1.35841800000000       -0.20141600000000
C           71.12062200000000       -2.63662900000000       -0.08145500000000
C           70.08372100000000       -3.53812700000000       -0.43353400000000
C           68.97423800000000       -2.78265000000000       -0.75002100000000
C           67.58458600000000       -3.32937200000000       -1.27809400000000
C           67.59371200000000       -4.60759200000000       -2.02792200000000
C           68.07177400000000       -4.64784600000000       -3.34280700000000
C           68.09677900000000       -5.85283700000000       -4.04782700000000
C           67.64599000000000       -7.02575900000000       -3.44080000000000
C           67.17104800000000       -6.99525600000000       -2.12911600000000
C           67.14699100000000       -5.79020700000000       -1.42452100000000
C           66.44978800000000       -2.60867300000000       -1.07718100000000
C           65.16285000000001       -3.03270800000000       -1.58891900000000
C           64.25489200000000       -2.12697500000000       -1.24171700000000
C           64.91725300000000       -1.07923100000000       -0.49099900000000
N           66.24176400000000       -1.42141200000000       -0.43105500000000
N           69.28517300000000       -1.46360100000000       -0.53290400000000
C           68.06709999999998        4.70234800000000        1.79595900000000
C           67.58883700000000        5.65506400000000        0.88893900000000
C           67.56351800000000        7.00773300000000        1.23437700000000
C           68.01419500000000        7.41550700000000        2.49058200000000
C           68.48936700000000        6.47198500000000        3.40216700000000
C           68.51374400000000        5.11957000000000        3.05638500000000
H           63.53194899999999        1.91387700000000        2.17969800000000
H           65.51667399999999        3.61440900000000        2.90802600000000
H           67.03687300000000        0.89258200000000        0.08217900000000
H           70.69272299999999        4.30863200000000        1.21847400000000
H           72.45048900000000        2.59605900000000        0.47197300000000
H           72.12908299999999       -2.89387500000000        0.20463700000000
H           70.14435200000000       -4.61537300000000       -0.47262000000000
H           68.42208800000000       -3.72862100000000       -3.80732200000000
H           68.46852100000000       -5.86845000000000       -5.06735200000000
H           67.66477200000000       -7.96193300000000       -3.98954800000000
H           66.81806600000000       -7.90295200000000       -1.65042300000000
H           66.77748900000000       -5.75419300000000       -0.40186200000000
H           64.96820700000001       -3.92154400000000       -2.16206400000000
H           63.21045000000000       -2.17870000000000       -1.48925700000000
H           68.62404800000000       -0.69311000000000       -0.56900100000000
H           67.23857000000000        5.32760400000000       -0.08756300000000
H           67.19158899999999        7.73533500000000        0.52014600000000
H           67.99513100000000        8.46711700000000        2.75825900000000
H           68.84224599999999        6.78128600000000        4.38067100000000
H           68.88337900000001        4.37524900000000        3.75853400000000
C           80.54967100000000       -0.00249500000000        0.00546300000000
C           81.34332300000000        1.10732800000000        0.81142300000000
C           80.83659700000000        1.93207000000000        1.79531600000000
C           81.87349600000000        2.82076900000000        2.17855600000000
C           82.98293800000000        2.50596700000000        1.42231200000000
N           82.67198599999999        1.41519200000000        0.64951200000000
C           84.37256300000000        3.26607900000000        1.43095600000000
C           85.50737200000000        2.61223800000000        1.06730300000000
C           86.79430300000000        3.27355300000000        1.00136500000000
C           87.70226399999999        2.38526700000000        0.61168600000000
N           85.71540299999999        1.31358300000000        0.69237500000000
C           87.03991100000000        1.11233100000000        0.40919800000000
C           87.70370899999999       -0.00249500000000        0.00546300000000
C           86.91007300000000       -1.35841800000000       -0.20141600000000
C           87.41683899999998       -2.63662900000000       -0.08145500000000
C           86.37993800000000       -3.53812700000000       -0.43353400000000
C           85.27045500000000       -2.78265000000000       -0.75002100000000
C           83.88080299999999       -3.32937200000000       -1.27809400000000
C           83.88992900000000       -4.60759200000000       -2.02792200000000
C           84.36799100000000       -4.64784600000000       -3.34280700000000
C           84.39299600000000       -5.85283700000000       -4.04782700000000
C           83.94220700000000       -7.02575900000000       -3.44080000000000
C           83.46726500000000       -6.99525600000000       -2.12911600000000
C           83.44320800000000       -5.79020700000000       -1.42452100000000
C           82.74600500000000       -2.60867300000000       -1.07718100000000
C           81.45906800000000       -3.03270800000000       -1.58891900000000
C           80.55110899999998       -2.12697500000000       -1.24171700000000
C           81.21347000000000       -1.07923100000000       -0.49099900000000
N           82.53798200000000       -1.42141200000000       -0.43105500000000
N           85.58139000000000       -1.46360100000000       -0.53290400000000
C           84.36331700000000        4.70234800000000        1.79595900000000
C           83.88505399999998        5.65506400000000        0.88893900000000
C           83.85973499999999        7.00773300000000        1.23437700000000
C           84.31041199999999        7.41550700000000        2.49058200000000
C           84.78558399999999        6.47198500000000        3.40216700000000
C           84.80996100000000        5.11957000000000        3.05638500000000
H           79.82816600000000        1.91387700000000        2.17969800000000
H           81.81289099999999        3.61440900000000        2.90802600000000
H           83.33309000000000        0.89258200000000        0.08217900000000
H           86.98894000000000        4.30863200000000        1.21847400000000
H           88.74670599999999        2.59605900000000        0.47197300000000
H           88.42529999999999       -2.89387500000000        0.20463700000000
H           86.44056899999998       -4.61537300000000       -0.47262000000000
H           84.71830500000000       -3.72862100000000       -3.80732200000000
H           84.76473799999998       -5.86845000000000       -5.06735200000000
H           83.96098900000000       -7.96193300000000       -3.98954800000000
H           83.11428300000000       -7.90295200000000       -1.65042300000000
H           83.07370599999999       -5.75419300000000       -0.40186200000000
H           81.26442400000001       -3.92154400000000       -2.16206400000000
H           79.50666699999999       -2.17870000000000       -1.48925700000000
H           84.92026500000000       -0.69311000000000       -0.56900100000000
H           83.53478699999999        5.32760400000000       -0.08756300000000
H           83.48780600000001        7.73533500000000        0.52014600000000
H           84.29134800000000        8.46711700000000        2.75825900000000
H           85.13846300000000        6.78128600000000        4.38067100000000
H           85.17959600000000        4.37524900000000        3.75853400000000
C           96.84588799999999       -0.00249500000000        0.00546300000000
C           97.63954000000000        1.10732800000000        0.81142300000000
C           97.13281400000000        1.93207000000000        1.79531600000000
C           98.16971300000000        2.82076900000000        2.17855600000000
C           99.27915500000000        2.50596700000000        1.42231200000000
N           98.96820300000000        1.41519200000000        0.64951200000000
C          100.66878000000000        3.26607900000000        1.43095600000000
C          101.80358900000000        2.61223800000000        1.06730300000000
C          103.09051999999998        3.27355300000000        1.00136500000000
C          103.99848200000000        2.38526700000000        0.61168600000000
N          102.01161999999998        1.31358300000000        0.69237500000000
C          103.33612800000000        1.11233100000000        0.40919800000000
C          103.99992600000000       -0.00249500000000        0.00546300000000
C          103.20629000000000       -1.35841800000000       -0.20141600000000
C          103.71305599999999       -2.63662900000000       -0.08145500000000
C          102.67615499999998       -3.53812700000000       -0.43353400000000
C          101.56667199999998       -2.78265000000000       -0.75002100000000
C          100.17702000000000       -3.32937200000000       -1.27809400000000
C          100.18614599999998       -4.60759200000000       -2.02792200000000
C          100.66420799999999       -4.64784600000000       -3.34280700000000
C          100.68921299999998       -5.85283700000000       -4.04782700000000
C          100.23842399999998       -7.02575900000000       -3.44080000000000
C           99.76348200000000       -6.99525600000000       -2.12911600000000
C           99.73942500000000       -5.79020700000000       -1.42452100000000
C           99.04222200000000       -2.60867300000000       -1.07718100000000
C           97.75528499999999       -3.03270800000000       -1.58891900000000
C           96.84732600000000       -2.12697500000000       -1.24171700000000
C           97.50968700000000       -1.07923100000000       -0.49099900000000
N           98.83419899999998       -1.42141200000000       -0.43105500000000
N          101.87760799999998       -1.46360100000000       -0.53290400000000
C          100.65953399999999        4.70234800000000        1.79595900000000
C          100.18127100000000        5.65506400000000        0.88893900000000
C          100.15595200000000        7.00773300000000        1.23437700000000
C          100.60662900000000        7.41550700000000        2.49058200000000
C          101.08180100000000        6.47198500000000        3.40216700000000
C          101.10617800000000        5.11957000000000        3.05638500000000
H           96.12438299999999        1.91387700000000        2.17969800000000
H           98.10910800000001        3.61440900000000        2.90802600000000
H           99.62930700000000        0.89258200000000        0.08217900000000
H          103.28515700000000        4.30863200000000        1.21847400000000
H          105.04292299999999        2.59605900000000        0.47197300000000
H          104.72151699999999       -2.89387500000000        0.20463700000000
H          102.73678600000000       -4.61537300000000       -0.47262000000000
H          101.01452299999998       -3.72862100000000       -3.80732200000000
H          101.06095500000001       -5.86845000000000       -5.06735200000000
H          100.25720599999998       -7.96193300000000       -3.98954800000000
H           99.41050000000000       -7.90295200000000       -1.65042300000000
H           99.36992300000000       -5.75419300000000       -0.40186200000000
H           97.56064100000000       -3.92154400000000       -2.16206400000000
H           95.80288400000001       -2.17870000000000       -1.48925700000000
H          101.21648199999998       -0.69311000000000       -0.56900100000000
H           99.83100399999999        5.32760400000000       -0.08756300000000
H           99.78402400000000        7.73533500000000        0.52014600000000
H          100.58756499999998        8.46711700000000        2.75825900000000
H          101.43468000000000        6.78128600000000        4.38067100000000
H          101.47581299999999        4.37524900000000        3.75853400000000
306
 energy: -506.236113690787 gnorm: 0.401673374691 xtb: 6.5.1 (b24c23e)
C           46.70971116708055       -0.03935719760347       -0.04282659263478
C           47.40734395340565       -1.25028348690242        0.49991550013330
C           46.80674837878404       -2.43307989183736        0.92395973388052
C           47.82093617646596       -3.27671243604304        1.41582882445771
C           49.04023504055234       -2.60626606381027        1.29722508732010
N           48.76409394056826       -1.39520014543090        0.69693724082023
C           50.40880762489188       -3.08645529842739        1.76821604196470
C           51.57458851833337       -2.42144856076193        1.43585391525595
C           52.87993855694018       -2.83218830728960        1.93205344775855
C           53.79028603556390       -1.97655958823983        1.45349453653572
N           51.76218548475948       -1.31581039739821        0.65078336386453
C           53.10465398713333       -0.99672859226051        0.61992968656422
C           53.73789930262828        0.02718043304008       -0.03446608763013
C           53.00038003643836        1.01710061538013       -0.91944352591173
C           53.53057138775708        1.77766817304090       -1.96153773704634
C           52.51089486777195        2.60447605698502       -2.47006747080862
C           51.34931778181318        2.35029677846450       -1.74383781366004
C           49.99143869914820        3.02994365399335       -1.92068598797549
C           49.94310076754687        4.37987317340554       -2.56212828694730
C           49.55787718038972        4.53498397063890       -3.90059093101994
C           49.54639631527188        5.79505052270683       -4.49578851908788
C           49.91094502832016        6.91822003681628       -3.75821559296037
C           50.28437662852365        6.77962196027692       -2.42413949676442
C           50.29854346869629        5.51940963509535       -1.82958210544339
C           48.83243751694306        2.42561156412298       -1.48402771732439
C           47.50890805000061        3.02822783650953       -1.61788727298958
C           46.61828649620413        2.17201750459929       -1.10728122927215
C           47.35543272025772        1.01460364043689       -0.62880271838473
N           48.67941915947058        1.21377941419307       -0.87192825872503
N           51.65971423599730        1.35446293260513       -0.83680585180661
C           50.46837599778527       -4.29135624113178        2.65616211889964
C           50.22679416671131       -4.17008624658601        4.03061637814859
C           50.25445898598163       -5.29070316497992        4.85860098091503
C           50.52899468280633       -6.54674431915939        4.32438030281081
C           50.78071748582426       -6.68016015480699        2.96155913562320
C           50.75478407018843       -5.55943733242507        2.13351718264176
H           45.62261937780833        0.02202904313438        0.04484796026481
H           45.74737188359263       -2.64071054959689        0.88242321323591
H           47.69334103435752       -4.26582481526415        1.83014215873985
H           49.46312984628010       -0.70816570204416        0.43556878744590
H           53.08462754519212       -3.66533610037739        2.58058397622954
H           54.84393139314836       -2.02101856326546        1.65472726495815
H           54.55119382141064        1.72778109223161       -2.30869770975635
H           52.59393884027038        3.31317710548567       -3.28144479970825
H           49.27413043916506        3.65505303589939       -4.47148509508660
H           49.25304023591710        5.89570459085593       -5.53750287406151
H           49.90230035263303        7.90086921159508       -4.22179143157819
H           50.56985644527508        7.65192709494655       -1.84187877413608
H           50.58754822126867        5.40731316490861       -0.78795958828041
H           47.28581698885185        3.98878869153307       -2.04434781079764
H           45.55362181271111        2.31050478655856       -1.04705306035055
H           50.97643897670914        0.89245094509992       -0.24649035496294
H           50.01598441880735       -3.18715515485414        4.44349172459628
H           50.05877964778968       -5.17867488902355        5.92193689492108
H           50.54950314846164       -7.42032928802743        4.97016296708031
H           50.99775024890891       -7.65739016481056        2.53803758714000
H           50.95270338169768       -5.65748791863699        1.06961380668585
C          121.54355201357875       -0.01264830413156       -0.05975463123995
C          120.84592295041381        0.99509171869838       -0.92310073021292
C          121.44651769070352        1.88348657051259       -1.81167993795136
C          120.43232856524170        2.68842831942844       -2.36460239760788
C          119.21303397750981        2.29496432680089       -1.80894590991655
N          119.48917014701007        1.23512575916581       -0.97004097678504
C          117.84445778252648        2.92587073594354       -2.04211963416153
C          116.67868170218134        2.34143413473349       -1.58264628688063
C          115.37333185655821        2.96549728406536       -1.74225024872713
C          114.46298617206017        2.16747861608987       -1.17280009296998
N          116.49107708202672        1.15950207722206       -0.91795391729682
C          115.14861973385746        0.99542919028804       -0.64259173983849
C          114.51530964662759       -0.03334736756486        0.00395873909008
C          115.25282853452055       -1.25635059132945        0.52137214765720
C          114.72267828808262       -2.52342305622381        0.76429055018442
C          115.74236045931775       -3.33624001175986        1.29488264875484
C          116.90393542216333       -2.57099640812488        1.37505235708980
C          118.26181740417573       -3.02107098995702        1.91416583728422
C          118.31016182480268       -4.17740790967135        2.86107953009889