      -----------------------------------------------------------      
     |                   =====================                   |     
     |                           x T B                           |     
     |                   =====================                   |     
     |                         S. Grimme                         |     
     |          Mulliken Center for Theoretical Chemistry        |     
     |                    University of Bonn                     |     
      -----------------------------------------------------------      

   * xtb version 6.5.1 (b24c23e) compiled by 'conda@728c89f4b128' on 2022-07-12

   xtb is free software: you can redistribute it and/or modify it under
   the terms of the GNU Lesser General Public License as published by
   the Free Software Foundation, either version 3 of the License, or
   (at your option) any later version.
   
   xtb is distributed in the hope that it will be useful,
   but WITHOUT ANY WARRANTY; without even the implied warranty of
   MERCHANTABILITY or FITNESS FOR A PARTICULAR PURPOSE.  See the
   GNU Lesser General Public License for more details.
   
   Cite this work as:
   * C. Bannwarth, E. Caldeweyher, S. Ehlert, A. Hansen, P. Pracht,
     J. Seibert, S. Spicher, S. Grimme, WIREs Comput. Mol. Sci., 2020, 11,
     e01493. DOI: 10.1002/wcms.1493
   
   for GFN2-xTB:
   * C. Bannwarth, S. Ehlert and S. Grimme., J. Chem. Theory Comput., 2019,
     15, 1652-1671. DOI: 10.1021/acs.jctc.8b01176
   for GFN1-xTB:
   * S. Grimme, C. Bannwarth, P. Shushkov, J. Chem. Theory Comput., 2017,
     13, 1989-2009. DOI: 10.1021/acs.jctc.7b00118
   for GFN0-xTB:
   * P. Pracht, E. Caldeweyher, S. Ehlert, S. Grimme, ChemRxiv, 2019, preprint.
     DOI: 10.26434/chemrxiv.8326202.v1
   for GFN-FF:
   * S. Spicher and S. Grimme, Angew. Chem. Int. Ed., 2020, 59, 15665-15673.
     DOI: 10.1002/anie.202004239
   
   for ALPB and GBSA implicit solvation:
   * S. Ehlert, M. Stahn, S. Spicher, S. Grimme, J. Chem. Theory Comput.,
     2021, 17, 4250-4261. DOI: 10.1021/acs.jctc.1c00471
   
   for DFT-D4:
   * E. Caldeweyher, C. Bannwarth and S. Grimme, J. Chem. Phys., 2017,
     147, 034112. DOI: 10.1063/1.4993215
   * E. Caldeweyher, S. Ehlert, A. Hansen, H. Neugebauer, S. Spicher,
     C. Bannwarth and S. Grimme, J. Chem. Phys., 2019, 150, 154122.
     DOI: 10.1063/1.5090222
   * E. Caldeweyher, J.-M. Mewes, S. Ehlert and S. Grimme, Phys. Chem. Chem. Phys.
     2020, 22, 8499-8512. DOI: 10.1039/D0CP00502A
   
   for sTDA-xTB:
   * S. Grimme and C. Bannwarth, J. Chem. Phys., 2016, 145, 054103.
     DOI: 10.1063/1.4959605
   
   in the mass-spec context:
   * V. Asgeirsson, C. Bauer and S. Grimme, Chem. Sci., 2017, 8, 4879.
     DOI: 10.1039/c7sc00601b
   * J. Koopman and S. Grimme, ACS Omega 2019, 4, 12, 15120-15133.
     DOI: 10.1021/acsomega.9b02011
   
   for metadynamics refer to:
   * S. Grimme, J. Chem. Theory Comput., 2019, 155, 2847-2862
     DOI: 10.1021/acs.jctc.9b00143
   
   for SPH calculations refer to:
   * S. Spicher and S. Grimme, J. Chem. Theory Comput., 2021, 17, 1701-1714
     DOI: 10.1021/acs.jctc.0c01306
   
   with help from (in alphabetical order)
   P. Atkinson, C. Bannwarth, F. Bohle, G. Brandenburg, E. Caldeweyher
   M. Checinski, S. Dohm, S. Ehlert, S. Ehrlich, I. Gerasimov, C. Hölzer
   A. Katbashev, J. Koopman, C. Lavigne, S. Lehtola, F. März, M. Müller,
   F. Musil, H. Neugebauer, J. Pisarek, C. Plett, P. Pracht, F. Pultar,
   J. Seibert, P. Shushkov, S. Spicher, M. Stahn, M. Steiner, T. Strunk,
   J. Stückrath, T. Rose, and J. Unsleber
   
 * started run on 2022/07/30 at 02:32:14.043     

           -------------------------------------------------
          |                Calculation Setup                |
           -------------------------------------------------

          program call               : xtb xtbopt.xyz --gfn 1 --vipea
          hostname                   : cx3-14-19.cx3.hpc.ic.ac.uk
          coordinate file            : xtbopt.xyz
          omp threads                :                     1

   ID    Z sym.   atoms
    1   28 Ni     1, 55, 121, 174
    2    6 C      2-6, 8-11, 13-17, 19-24, 26-29, 31-36, 56-60, 62-65, 67-71,
                  73-78, 80-83, 85-90, 109-120, 122-126, 128-131, 133-137,
                  139-144, 146-149, 151-156, 175-179, 181-184, 186-190,
                  192-197, 199-202, 204-209
    3    7 N      7, 12, 18, 25, 30, 37, 61, 66, 72, 79, 84, 91, 127, 132,
                  138, 145, 150, 157, 180, 185, 191, 198, 203, 210
    4    1 H      38-54, 92-108, 158-173, 211-226

           -------------------------------------------------
          |                 I P E A - x T B                 |
           -------------------------------------------------

        Reference                      10.1039/c7sc00601b
      * Hamiltonian:
        H0-scaling (s, p, d)           2.150000    2.300000    2.000000
        zeta-weighting                 0.000000
      * Dispersion:
        s8                             2.400000
        a1                             0.630000
        a2                             5.000000
        s9                             0.000000
      * Repulsion:
        kExp                           1.500000
        rExp                           1.000000
      * Coulomb:
        alpha                          1.000000
        third order                    atomic
        anisotropic                    false
      * Halogen bond correction:
        rad-scale                      1.300000
        damping                        0.440000


          ...................................................
          :                      SETUP                      :
          :.................................................:
          :  # basis functions                 952          :
          :  # atomic orbitals                 948          :
          :  # shells                          612          :
          :  # electrons                       754          :
          :  # halogen bonds                     0          :
          :  max. iterations                   250          :
          :  Hamiltonian                  GFN1-xTB          :
          :  restarted?                      false          :
          :  GBSA solvation                  false          :
          :  PC potential                    false          :
          :  electronic temp.          300.0000000     K    :
          :  accuracy                    1.0000000          :
          :  -> integral cutoff          0.2500000E+02      :
          :  -> integral neglect         0.1000000E-07      :
          :  -> SCF convergence          0.1000000E-05 Eh   :
          :  -> wf. convergence          0.2000000E-04 e    :
          :  Broyden damping             0.4000000          :
          ...................................................

 iter      E             dE          RMSdq      gap      omega  full diag
   1   -469.1388026 -0.469139E+03  0.104E+01    1.14       0.0  T
   2   -469.2837100 -0.144907E+00  0.650E+00    1.00       1.0  T
   3   -460.6883803  0.859533E+01  0.509E+00    0.70       1.0  T
   4   -470.4876586 -0.979928E+01  0.901E-01    1.47       1.0  T
   5   -470.8782492 -0.390591E+00  0.219E-01    1.31       1.0  T
   6   -470.8988443 -0.205951E-01  0.829E-02    1.32       1.0  T
   7   -470.9016099 -0.276558E-02  0.371E-02    1.31       1.0  T
   8   -470.9020596 -0.449782E-03  0.232E-02    1.31       1.0  T
   9   -470.9021621 -0.102451E-03  0.141E-02    1.31       1.0  T
  10   -470.9022269 -0.647765E-04  0.332E-03    1.31       2.0  T
  11   -470.9022284 -0.156988E-05  0.156E-03    1.31       4.3  T
  12   -470.9022297 -0.126341E-05  0.417E-04    1.31      16.0  T
  13   -470.9022298 -0.568982E-07  0.207E-04    1.31      32.1  T
  14   -470.9022298 -0.161311E-07  0.711E-05    1.31      93.6  T
  15   -470.9022298 -0.159122E-08  0.363E-05    1.31     183.4  T

   *** convergence criteria satisfied after 15 iterations ***

         #    Occupation            Energy/Eh            Energy/eV
      -------------------------------------------------------------
         1        2.0000           -1.0507927             -28.5935
       ...           ...                  ...                  ...
       371        2.0000           -0.3862386             -10.5101
       372        2.0000           -0.3860470             -10.5049
       373        2.0000           -0.3860247             -10.5043
       374        2.0000           -0.3858955             -10.5008
       375        2.0000           -0.3858886             -10.5006
       376        2.0000           -0.3845253             -10.4635
       377        2.0000           -0.3774604             -10.2712 (HOMO)
       378                         -0.3291935              -8.9578 (LUMO)
       379                         -0.3201457              -8.7116
       380                         -0.3120657              -8.4917
       381                         -0.3119480              -8.4885
       382                         -0.3114458              -8.4749
       ...                                ...                  ...
       948                        521.4870964           14190.3862
      -------------------------------------------------------------
                  HL-Gap            0.0482669 Eh            1.3134 eV
             Fermi-level           -0.3533269 Eh           -9.6145 eV

 SCC (total)                   0 d,  0 h,  0 min, 10.678 sec
 SCC setup                      ...        0 min,  0.013 sec (  0.120%)
 Dispersion                     ...        0 min,  0.016 sec (  0.153%)
 classical contributions        ...        0 min,  0.005 sec (  0.043%)
 integral evaluation            ...        0 min,  1.073 sec ( 10.044%)
 iterations                     ...        0 min,  7.153 sec ( 66.983%)
 molecular gradient             ...        0 min,  2.316 sec ( 21.687%)
 printout                       ...        0 min,  0.104 sec (  0.970%)

         :::::::::::::::::::::::::::::::::::::::::::::::::::::
         ::                     SUMMARY                     ::
         :::::::::::::::::::::::::::::::::::::::::::::::::::::
         :: total energy            -461.820284275124 Eh    ::
         :: gradient norm              0.074867807727 Eh/a0 ::
         :: HOMO-LUMO gap              1.313408630063 eV    ::
         ::.................................................::
         :: SCC energy              -470.902229780759 Eh    ::
         :: -> electrostatic           0.343862931506 Eh    ::
         :: repulsion energy           9.292935603420 Eh    ::
         :: dispersion energy         -0.210990097785 Eh    ::
         :: halogen bond corr.         0.000000000000 Eh    ::
         :: add. restraining           0.000000000000 Eh    ::
         :: total charge              -0.000000000000 e     ::
         :::::::::::::::::::::::::::::::::::::::::::::::::::::

           ------------------------------------------------- 
          |        vertical delta SCC IP calculation        |
           ------------------------------------------------- 
   1   -470.4925004 -0.470493E+03  0.900E-02    1.31       0.0  T
   2   -470.3999017  0.925987E-01  0.449E-01    1.22       1.0  T
   3   -470.4684815 -0.685798E-01  0.256E-01    1.26       1.0  T
   4   -470.4867591 -0.182776E-01  0.136E-01    1.27       1.0  T
   5   -470.4942589 -0.749986E-02  0.669E-02    1.29       1.0  T
   6   -470.4978469 -0.358802E-02  0.531E-02    1.30       1.0  T
   7   -470.5001728 -0.232590E-02  0.319E-02    1.29       1.0  T
   8   -470.5000595  0.113302E-03  0.265E-02    1.29       1.0  T
   9   -470.5003668 -0.307265E-03  0.167E-02    1.29       1.0  T
  10   -470.5003970 -0.302081E-04  0.126E-02    1.29       1.0  T
  11   -470.5004263 -0.292955E-04  0.955E-03    1.29       1.0  T
  12   -470.5004461 -0.198338E-04  0.584E-03    1.29       1.1  T
  13   -470.5004520 -0.590139E-05  0.360E-03    1.29       1.8  T
  14   -470.5004530 -0.974295E-06  0.287E-03    1.29       2.3  T
  15   -470.5004532 -0.152244E-06  0.260E-03    1.29       2.6  T
  16   -470.5004539 -0.740293E-06  0.219E-03    1.29       3.0  T
  17   -470.5004544 -0.522167E-06  0.182E-03    1.29       3.7  T
  18   -470.5004551 -0.656456E-06  0.130E-03    1.29       5.1  T
  19   -470.5004554 -0.316610E-06  0.937E-04    1.29       7.1  T
  20   -470.5004557 -0.254515E-06  0.469E-04    1.29      14.2  T
  21   -470.5004557 -0.724465E-07  0.194E-04    1.29      34.3  T
  22   -470.5004557 -0.152851E-07  0.163E-05    1.29     407.8  T
     SCC iter.                  ...        0 min, 10.479 sec
     gradient                   ...        0 min,  2.317 sec
------------------------------------------------------------------------
empirical IP shift (eV):    4.8455
delta SCC IP (eV):    6.0873
------------------------------------------------------------------------
           ------------------------------------------------- 
          |        vertical delta SCC EA calculation        |
           ------------------------------------------------- 
   1   -471.1800923 -0.471180E+03  0.160E-01    0.29       0.0  T
   2   -471.1897142 -0.962185E-02  0.149E-01    0.09       1.0  T
   3   -471.2014064 -0.116922E-01  0.870E-02    0.20       1.0  T
   4   -471.1997938  0.161258E-02  0.783E-02    0.17       1.0  T
   5   -471.2011987 -0.140494E-02  0.626E-02    0.16       1.0  T
   6   -471.2043846 -0.318590E-02  0.355E-02    0.15       1.0  T
   7   -471.2056927 -0.130804E-02  0.133E-02    0.15       1.0  T
   8   -471.2058007 -0.108021E-03  0.568E-03    0.15       1.2  T
   9   -471.2058124 -0.116903E-04  0.373E-03    0.15       1.8  T
  10   -471.2058171 -0.469613E-05  0.126E-03    0.15       5.3  T
  11   -471.2058177 -0.635475E-06  0.736E-04    0.15       9.0  T
  12   -471.2058179 -0.199415E-06  0.270E-04    0.15      24.6  T
  13   -471.2058179 -0.245609E-07  0.126E-04    0.15      52.7  T
  14   -471.2058179 -0.441861E-08  0.568E-05    0.15     117.1  T
     SCC iter.                  ...        0 min,  6.644 sec
     gradient                   ...        0 min,  2.319 sec
------------------------------------------------------------------------
empirical EA shift (eV):    4.8455
delta SCC EA (eV):    3.4155
------------------------------------------------------------------------
           -------------------------------------------------
          |                Property Printout                |
           -------------------------------------------------

    * Orbital Energies and Occupations

         #    Occupation            Energy/Eh            Energy/eV
      -------------------------------------------------------------
         1        2.0000           -1.0065545             -27.3897
       ...           ...                  ...                  ...
       366        2.0000           -0.3431894              -9.3387
       367        2.0000           -0.3430842              -9.3358
       368        2.0000           -0.3389312              -9.2228
       369        2.0000           -0.3384588              -9.2099
       370        2.0000           -0.3371855              -9.1753
       371        2.0000           -0.3368344              -9.1657
       372        2.0000           -0.3363639              -9.1529
       373        2.0000           -0.3363289              -9.1520
       374        2.0000           -0.3362281              -9.1492
       375        2.0000           -0.3357157              -9.1353
       376        2.0000           -0.3355819              -9.1316
       377        2.0000           -0.3270197              -8.8987
       378        0.9441           -0.2789297              -7.5901 (HOMO)
       379        0.0550           -0.2735417              -7.4434 (LUMO)
       380        0.0007           -0.2692735              -7.3273
       381        0.0002           -0.2682318              -7.2990
       382        0.0000           -0.2653090              -7.2194
       383        0.0000           -0.2618527              -7.1254
       384        0.0000           -0.2615526              -7.1172
       385                         -0.2559029              -6.9635
       386                         -0.2316406              -6.3033
       387                         -0.2269814              -6.1765
       388                         -0.2268055              -6.1717
       389                         -0.2267303              -6.1696
       ...                                ...                  ...
       948                        521.5378691           14191.7678
      -------------------------------------------------------------
                  HL-Gap            0.0053879 Eh            0.1466 eV
             Fermi-level           -0.2896105 Eh           -7.8807 eV

  Mulliken/CM5 charges         n(s)   n(p)   n(d)
     1Ni    0.27677  0.64625   0.572  0.782  8.370
     2C    -0.02290 -0.06427   1.081  2.942  0.000
     3C     0.05974  0.12034   1.111  2.829  0.000
     4C    -0.03720 -0.08373   1.085  2.952  0.000
     5C    -0.03416 -0.08015   1.079  2.955  0.000
     6C     0.06070  0.12480   1.102  2.837  0.000
     7N    -0.20993 -0.46122   1.314  3.895  0.000
     8C     0.01151  0.01699   1.083  2.905  0.000
     9C     0.02477  0.01800   1.101  2.874  0.000
    10C    -0.01550 -0.06322   1.080  2.935  0.000
    11C     0.05483  0.07954   1.128  2.817  0.000
    12N    -0.25578 -0.45171   1.375  3.881  0.000
    13C     0.05450  0.07922   1.128  2.818  0.000
    14C    -0.01594 -0.06365   1.080  2.936  0.000
    15C     0.06014  0.12356   1.100  2.839  0.000
    16C    -0.03402 -0.08001   1.077  2.957  0.000
    17C    -0.03453 -0.08012   1.084  2.951  0.000
    18N    -0.20692 -0.45786   1.316  3.891  0.000
    19C     0.06418  0.12933   1.116  2.820  0.000
    20C     0.01757  0.02447   1.080  2.903  0.000
    21C     0.06407  0.12917   1.116  2.820  0.000
    22C    -0.03451 -0.08010   1.084  2.951  0.000
    23C    -0.03399 -0.08004   1.077  2.957  0.000
    24C     0.06015  0.12359   1.101  2.839  0.000
    25N    -0.20690 -0.45803   1.316  3.891  0.000
    26C     0.01094  0.01641   1.083  2.906  0.000
    27C     0.02445  0.01771   1.101  2.875  0.000
    28C    -0.01586 -0.06356   1.080  2.936  0.000
    29C     0.05434  0.07904   1.128  2.818  0.000
    30N    -0.25575 -0.45164   1.375  3.881  0.000
    31C     0.05484  0.07954   1.128  2.817  0.000
    32C    -0.01518 -0.06287   1.080  2.935  0.000
    33C     0.06078  0.12487   1.103  2.836  0.000
    34C    -0.03402 -0.08010   1.079  2.955  0.000
    35C    -0.03709 -0.08362   1.085  2.952  0.000
    36C     0.05974  0.12031   1.111  2.829  0.000
    37N    -0.20992 -0.46134   1.314  3.896  0.000
    38H     0.02498  0.08401   0.975  0.000  0.000
    39H     0.03105  0.08769   0.969  0.000  0.000
    40H     0.02529  0.08430   0.975  0.000  0.000
    41H     0.02527  0.08322   0.975  0.000  0.000
    42H     0.03087  0.09679   0.969  0.000  0.000
    43H     0.03013  0.09605   0.970  0.000  0.000
    44H     0.02455  0.08249   0.975  0.000  0.000
    45H     0.02636  0.08545   0.974  0.000  0.000
    46H     0.02764  0.08586   0.972  0.000  0.000
    47H     0.02773  0.08592   0.972  0.000  0.000
    48H     0.02590  0.08493   0.974  0.000  0.000
    49H     0.02445  0.08256   0.976  0.000  0.000
    50H     0.02994  0.09587   0.970  0.000  0.000
    51H     0.03102  0.09694   0.969  0.000  0.000
    52H     0.02558  0.08366   0.974  0.000  0.000
    53H     0.02479  0.08379   0.975  0.000  0.000
    54H     0.03112  0.08775   0.969  0.000  0.000
    55Ni    0.27549  0.64098   0.572  0.781  8.372
    56C    -0.02323 -0.06463   1.081  2.942  0.000
    57C     0.05973  0.12035   1.111  2.829  0.000
    58C    -0.03738 -0.08393   1.085  2.952  0.000
    59C    -0.03428 -0.08028   1.079  2.955  0.000
    60C     0.06058  0.12472   1.102  2.837  0.000
    61N    -0.21028 -0.46055   1.315  3.896  0.000
    62C     0.01129  0.01672   1.083  2.906  0.000
    63C     0.02484  0.01803   1.101  2.874  0.000
    64C    -0.01544 -0.06311   1.080  2.935  0.000
    65C     0.05478  0.07949   1.128  2.817  0.000
    66N    -0.25585 -0.45179   1.375  3.881  0.000
    67C     0.05450  0.07923   1.128  2.818  0.000
    68C    -0.01590 -0.06360   1.080  2.936  0.000
    69C     0.05988  0.12329   1.100  2.840  0.000
    70C    -0.03428 -0.08027   1.077  2.957  0.000
    71C    -0.03479 -0.08039   1.084  2.951  0.000
    72N    -0.20710 -0.45711   1.316  3.891  0.000
    73C     0.06405  0.12923   1.116  2.820  0.000
    74C     0.01724  0.02408   1.079  2.903  0.000
    75C     0.06402  0.12918   1.116  2.820  0.000
    76C    -0.03477 -0.08037   1.083  2.951  0.000
    77C    -0.03425 -0.08030   1.077  2.958  0.000
    78C     0.05995  0.12336   1.100  2.840  0.000
    79N    -0.20714 -0.45708   1.316  3.891  0.000
    80C     0.01099  0.01642   1.083  2.906  0.000
    81C     0.02460  0.01782   1.101  2.875  0.000
    82C    -0.01590 -0.06361   1.080  2.936  0.000
    83C     0.05430  0.07900   1.128  2.818  0.000
    84N    -0.25587 -0.45178   1.375  3.881  0.000
    85C     0.05484  0.07954   1.128  2.817  0.000
    86C    -0.01520 -0.06292   1.080  2.935  0.000
    87C     0.06064  0.12475   1.102  2.837  0.000
    88C    -0.03418 -0.08025   1.079  2.955  0.000
    89C    -0.03733 -0.08388   1.085  2.952  0.000
    90C     0.05971  0.12029   1.111  2.830  0.000
    91N    -0.21021 -0.46070   1.314  3.896  0.000
    92H     0.02455  0.08360   0.975  0.000  0.000
    93H     0.03080  0.08745   0.969  0.000  0.000
    94H     0.02499  0.08402   0.975  0.000  0.000
    95H     0.02522  0.08318   0.975  0.000  0.000
    96H     0.03065  0.09657   0.969  0.000  0.000
    97H     0.03001  0.09594   0.970  0.000  0.000
    98H     0.02456  0.08249   0.975  0.000  0.000
    99H     0.02611  0.08518   0.974  0.000  0.000
   100H     0.02753  0.08579   0.972  0.000  0.000
   101H     0.02741  0.08566   0.973  0.000  0.000
   102H     0.02574  0.08484   0.974  0.000  0.000
   103H     0.02429  0.08235   0.976  0.000  0.000
   104H     0.02974  0.09566   0.970  0.000  0.000
   105H     0.03091  0.09684   0.969  0.000  0.000
   106H     0.02547  0.08352   0.975  0.000  0.000
   107H     0.02471  0.08376   0.975  0.000  0.000
   108H     0.03083  0.08748   0.969  0.000  0.000
   109C    -0.02093 -0.02178   1.064  2.957  0.000
   110C    -0.02329 -0.02504   1.088  2.936  0.000
   111C    -0.02465 -0.02549   1.060  2.964  0.000
   112C    -0.01918 -0.02091   1.093  2.926  0.000
   113C    -0.02364 -0.02447   1.062  2.962  0.000
   114C    -0.02228 -0.02401   1.089  2.933  0.000
   115C    -0.02387 -0.02467   1.062  2.962  0.000
   116C    -0.02208 -0.02373   1.090  2.932  0.000
   117C    -0.02497 -0.02577   1.061  2.964  0.000
   118C    -0.01992 -0.02157   1.092  2.928  0.000
   119C    -0.02158 -0.02245   1.063  2.958  0.000
   120C    -0.02364 -0.02545   1.088  2.936  0.000
   121Ni    0.27473  0.64276   0.571  0.780  8.374
   122C     0.01322  0.02015   1.076  2.911  0.000
   123C     0.06355  0.12870   1.116  2.821  0.000
   124C    -0.03696 -0.08256   1.082  2.955  0.000
   125C    -0.03455 -0.08062   1.078  2.957  0.000
   126C     0.05856  0.12198   1.099  2.843  0.000
   127N    -0.20811 -0.45890   1.315  3.893  0.000
   128C     0.01280  0.01822   1.084  2.903  0.000
   129C     0.02503  0.01828   1.101  2.874  0.000
   130C    -0.01517 -0.06286   1.080  2.935  0.000
   131C     0.05445  0.07915   1.128  2.818  0.000
   132N    -0.25630 -0.45221   1.375  3.881  0.000
   133C     0.05460  0.07930   1.128  2.818  0.000
   134C    -0.01501 -0.06272   1.080  2.935  0.000
   135C     0.05866  0.12200   1.099  2.842  0.000
   136C    -0.03447 -0.08055   1.077  2.957  0.000
   137C    -0.03611 -0.08170   1.083  2.953  0.000
   138N    -0.20763 -0.45840   1.315  3.892  0.000
   139C     0.06381  0.12903   1.116  2.820  0.000
   140C     0.01485  0.02176   1.077  2.908  0.000
   141C     0.06379  0.12902   1.116  2.820  0.000
   142C    -0.03612 -0.08170   1.083  2.953  0.000
   143C    -0.03450 -0.08054   1.077  2.957  0.000
   144C     0.05864  0.12202   1.099  2.843  0.000
   145N    -0.20763 -0.45834   1.315  3.892  0.000
   146C     0.01283  0.01825   1.084  2.903  0.000
   147C     0.02511  0.01836   1.101  2.874  0.000
   148C    -0.01503 -0.06269   1.080  2.935  0.000
   149C     0.05465  0.07936   1.128  2.818  0.000
   150N    -0.25625 -0.45217   1.375  3.881  0.000
   151C     0.05450  0.07920   1.128  2.818  0.000
   152C    -0.01517 -0.06285   1.080  2.935  0.000
   153C     0.05853  0.12195   1.099  2.843  0.000
   154C    -0.03455 -0.08061   1.078  2.957  0.000
   155C    -0.03695 -0.08255   1.082  2.955  0.000
   156C     0.06356  0.12874   1.116  2.821  0.000
   157N    -0.20816 -0.45891   1.315  3.893  0.000
   158H     0.02420  0.08239   0.976  0.000  0.000
   159H     0.02359  0.08264   0.976  0.000  0.000
   160H     0.02457  0.08269   0.975  0.000  0.000
   161H     0.02964  0.09556   0.970  0.000  0.000
   162H     0.02998  0.09591   0.970  0.000  0.000
   163H     0.02497  0.08307   0.975  0.000  0.000
   164H     0.02404  0.08308   0.976  0.000  0.000
   165H     0.02549  0.08369   0.975  0.000  0.000
   166H     0.02545  0.08364   0.975  0.000  0.000
   167H     0.02407  0.08307   0.976  0.000  0.000
   168H     0.02504  0.08311   0.975  0.000  0.000
   169H     0.03001  0.09593   0.970  0.000  0.000
   170H     0.02966  0.09558   0.970  0.000  0.000
   171H     0.02462  0.08271   0.975  0.000  0.000
   172H     0.02367  0.08270   0.976  0.000  0.000
   173H     0.02424  0.08244   0.976  0.000  0.000
   174Ni    0.27564  0.65045   0.571  0.781  8.373
   175C     0.01453  0.02152   1.077  2.908  0.000
   176C     0.06359  0.12878   1.116  2.820  0.000
   177C    -0.03621 -0.08178   1.082  2.954  0.000
   178C    -0.03447 -0.08055   1.077  2.957  0.000
   179C     0.05845  0.12179   1.099  2.842  0.000
   180N    -0.20753 -0.46003   1.315  3.892  0.000
   181C     0.01269  0.01818   1.084  2.903  0.000
   182C     0.02488  0.01822   1.100  2.875  0.000
   183C    -0.01493 -0.06262   1.080  2.934  0.000
   184C     0.05458  0.07928   1.128  2.818  0.000
   185N    -0.25641 -0.45229   1.375  3.881  0.000
   186C     0.05435  0.07905   1.128  2.818  0.000
   187C    -0.01514 -0.06282   1.080  2.935  0.000
   188C     0.05828  0.12166   1.099  2.843  0.000
   189C    -0.03457 -0.08065   1.078  2.957  0.000
   190C    -0.03697 -0.08254   1.082  2.955  0.000
   191N    -0.20786 -0.46041   1.315  3.893  0.000
   192C     0.06336  0.12850   1.116  2.821  0.000
   193C     0.01334  0.02035   1.076  2.911  0.000
   194C     0.06338  0.12852   1.116  2.820  0.000
   195C    -0.03695 -0.08252   1.082  2.955  0.000
   196C    -0.03457 -0.08062   1.078  2.957  0.000
   197C     0.05827  0.12168   1.099  2.843  0.000
   198N    -0.20780 -0.46041   1.315  3.893  0.000
   199C     0.01275  0.01823   1.084  2.903  0.000
   200C     0.02496  0.01829   1.101  2.875  0.000
   201C    -0.01514 -0.06277   1.080  2.935  0.000
   202C     0.05441  0.07912   1.128  2.818  0.000
   203N    -0.25634 -0.45224   1.375  3.881  0.000
   204C     0.05463  0.07934   1.128  2.818  0.000
   205C    -0.01494 -0.06262   1.080  2.935  0.000
   206C     0.05841  0.12174   1.099  2.842  0.000
   207C    -0.03448 -0.08054   1.077  2.957  0.000
   208C    -0.03622 -0.08179   1.082  2.954  0.000
   209C     0.06364  0.12885   1.116  2.820  0.000
   210N    -0.20755 -0.45999   1.315  3.892  0.000
   211H     0.02521  0.08333   0.975  0.000  0.000
   212H     0.02366  0.08263   0.976  0.000  0.000
   213H     0.02496  0.08314   0.975  0.000  0.000
   214H     0.03002  0.09595   0.970  0.000  0.000
   215H     0.02946  0.09538   0.971  0.000  0.000
   216H     0.02441  0.08261   0.976  0.000  0.000
   217H     0.02335  0.08229   0.977  0.000  0.000
   218H     0.02443  0.08253   0.976  0.000  0.000
   219H     0.02442  0.08253   0.976  0.000  0.000
   220H     0.02345  0.08236   0.977  0.000  0.000
   221H     0.02451  0.08267   0.975  0.000  0.000
   222H     0.02953  0.09546   0.970  0.000  0.000
   223H     0.03002  0.09595   0.970  0.000  0.000
   224H     0.02502  0.08315   0.975  0.000  0.000
   225H     0.02371  0.08266   0.976  0.000  0.000
   226H     0.02524  0.08335   0.975  0.000  0.000

Wiberg/Mayer (AO) data.
largest (>0.10) Wiberg bond orders for each atom

 ---------------------------------------------------------------------------
     #   Z sym  total        # sym  WBO       # sym  WBO       # sym  WBO
 ---------------------------------------------------------------------------
     1  28 Ni   3.322 --    25 N    0.711    18 N    0.711     7 N    0.711
                            37 N    0.711
     2   6 C    3.805 --    36 C    1.391     3 C    1.391    38 H    0.996
     3   6 C    3.945 --     2 C    1.391     7 N    1.255     4 C    1.201
     4   6 C    3.845 --     5 C    1.641     3 C    1.201    39 H    0.993
     5   6 C    3.831 --     4 C    1.641     6 C    1.208    40 H    0.998
     6   6 C    3.914 --     8 C    1.369     7 N    1.249     5 C    1.208
     7   7 N    3.009 --     3 C    1.255     6 C    1.249     1 Ni   0.711
     8   6 C    3.835 --     6 C    1.369    15 C    1.367     9 C    1.043
     9   6 C    3.909 --    14 C    1.430    10 C    1.430     8 C    1.043
    10   6 C    3.874 --    11 C    1.446     9 C    1.430    41 H    0.988
                            13 C    0.102
    11   6 C    4.000 --    12 N    1.479    10 C    1.446    42 H    0.983
                            14 C    0.102
    12   7 N    2.940 --    13 C    1.479    11 C    1.479
    13   6 C    4.000 --    12 N    1.479    14 C    1.446    43 H    0.983
                            10 C    0.102
    14   6 C    3.873 --    13 C    1.446     9 C    1.430    44 H    0.988
                            11 C    0.102
    15   6 C    3.902 --     8 C    1.367    18 N    1.240    16 C    1.216
    16   6 C    3.822 --    17 C    1.624    15 C    1.216    45 H    0.996
    17   6 C    3.835 --    16 C    1.624    19 C    1.226    46 H    0.998
    18   7 N    3.023 --    19 C    1.277    15 C    1.240     1 Ni   0.711
    19   6 C    3.922 --    20 C    1.302    18 N    1.277    17 C    1.226
    20   6 C    3.830 --    21 C    1.302    19 C    1.302   110 C    1.212
    21   6 C    3.922 --    20 C    1.302    25 N    1.276    22 C    1.226
    22   6 C    3.834 --    23 C    1.623    21 C    1.226    47 H    0.998
    23   6 C    3.822 --    22 C    1.623    24 C    1.217    48 H    0.996
    24   6 C    3.903 --    26 C    1.365    25 N    1.241    23 C    1.217
    25   7 N    3.023 --    21 C    1.276    24 C    1.241     1 Ni   0.711
    26   6 C    3.835 --    33 C    1.368    24 C    1.365    27 C    1.048
    27   6 C    3.909 --    32 C    1.428    28 C    1.427    26 C    1.048
    28   6 C    3.872 --    29 C    1.447    27 C    1.427    49 H    0.988
                            31 C    0.101
    29   6 C    4.000 --    30 N    1.479    28 C    1.447    50 H    0.983
                            32 C    0.101
    30   7 N    2.939 --    29 C    1.479    31 C    1.479
    31   6 C    3.999 --    30 N    1.479    32 C    1.447    51 H    0.983
                            28 C    0.101
    32   6 C    3.873 --    31 C    1.447    27 C    1.428    52 H    0.988
                            29 C    0.101
    33   6 C    3.916 --    26 C    1.368    37 N    1.249    34 C    1.208
    34   6 C    3.831 --    35 C    1.641    33 C    1.208    53 H    0.997
    35   6 C    3.844 --    34 C    1.641    36 C    1.201    54 H    0.992
    36   6 C    3.946 --     2 C    1.391    37 N    1.254    35 C    1.201
    37   7 N    3.008 --    36 C    1.254    33 C    1.249     1 Ni   0.711
    38   1 H    1.038 --     2 C    0.996
    39   1 H    1.025 --     4 C    0.993
    40   1 H    1.042 --     5 C    0.998
    41   1 H    1.057 --    10 C    0.988
    42   1 H    1.055 --    11 C    0.983
    43   1 H    1.055 --    13 C    0.983
    44   1 H    1.056 --    14 C    0.988
    45   1 H    1.042 --    16 C    0.996
    46   1 H    1.036 --    17 C    0.998
    47   1 H    1.037 --    22 C    0.998
    48   1 H    1.043 --    23 C    0.996
    49   1 H    1.057 --    28 C    0.988
    50   1 H    1.055 --    29 C    0.983
    51   1 H    1.055 --    31 C    0.983
    52   1 H    1.057 --    32 C    0.988
    53   1 H    1.044 --    34 C    0.997
    54   1 H    1.026 --    35 C    0.992
    55  28 Ni   3.312 --    91 N    0.710    72 N    0.710    79 N    0.710
                            61 N    0.710
    56   6 C    3.805 --    90 C    1.391    57 C    1.391    92 H    0.996
    57   6 C    3.946 --    56 C    1.391    61 N    1.255    58 C    1.201
    58   6 C    3.845 --    59 C    1.641    57 C    1.201    93 H    0.993
    59   6 C    3.831 --    58 C    1.641    60 C    1.208    94 H    0.998
    60   6 C    3.915 --    62 C    1.370    61 N    1.249    59 C    1.208
    61   7 N    3.008 --    57 C    1.255    60 C    1.249    55 Ni   0.710
    62   6 C    3.834 --    60 C    1.370    69 C    1.367    63 C    1.043
    63   6 C    3.909 --    68 C    1.430    64 C    1.430    62 C    1.043
    64   6 C    3.874 --    65 C    1.446    63 C    1.430    95 H    0.988
                            67 C    0.102
    65   6 C    4.000 --    66 N    1.479    64 C    1.446    96 H    0.983
                            68 C    0.102
    66   7 N    2.940 --    67 C    1.479    65 C    1.479
    67   6 C    4.000 --    66 N    1.479    68 C    1.446    97 H    0.983
                            64 C    0.102
    68   6 C    3.873 --    67 C    1.446    63 C    1.430    98 H    0.988
                            65 C    0.102
    69   6 C    3.902 --    62 C    1.367    72 N    1.241    70 C    1.217
    70   6 C    3.821 --    71 C    1.623    69 C    1.217    99 H    0.997
    71   6 C    3.834 --    70 C    1.623    73 C    1.227   100 H    0.998
    72   7 N    3.023 --    73 C    1.279    69 C    1.241    55 Ni   0.710
    73   6 C    3.921 --    74 C    1.300    72 N    1.279    71 C    1.227
    74   6 C    3.829 --    75 C    1.300    73 C    1.300   120 C    1.216
    75   6 C    3.921 --    74 C    1.300    79 N    1.278    76 C    1.227
    76   6 C    3.833 --    77 C    1.622    75 C    1.227   101 H    0.998
    77   6 C    3.821 --    76 C    1.622    78 C    1.218   102 H    0.996
    78   6 C    3.902 --    80 C    1.365    79 N    1.241    77 C    1.218
    79   7 N    3.023 --    75 C    1.278    78 C    1.241    55 Ni   0.710
    80   6 C    3.835 --    87 C    1.368    78 C    1.365    81 C    1.046
    81   6 C    3.909 --    86 C    1.428    82 C    1.428    80 C    1.046
    82   6 C    3.872 --    83 C    1.447    81 C    1.428   103 H    0.988
                            85 C    0.101
    83   6 C    4.000 --    84 N    1.479    82 C    1.447   104 H    0.983
                            86 C    0.102
    84   7 N    2.939 --    85 C    1.479    83 C    1.479
    85   6 C    3.999 --    84 N    1.479    86 C    1.447   105 H    0.983
                            82 C    0.101
    86   6 C    3.873 --    85 C    1.447    81 C    1.428   106 H    0.988
                            83 C    0.102
    87   6 C    3.915 --    80 C    1.368    91 N    1.249    88 C    1.208
    88   6 C    3.831 --    89 C    1.641    87 C    1.208   107 H    0.997
    89   6 C    3.844 --    88 C    1.641    90 C    1.201   108 H    0.993
    90   6 C    3.946 --    56 C    1.391    91 N    1.255    89 C    1.201
    91   7 N    3.008 --    90 C    1.255    87 C    1.249    55 Ni   0.710
    92   1 H    1.039 --    56 C    0.996
    93   1 H    1.026 --    58 C    0.993
    94   1 H    1.043 --    59 C    0.998
    95   1 H    1.057 --    64 C    0.988
    96   1 H    1.055 --    65 C    0.983
    97   1 H    1.055 --    67 C    0.983
    98   1 H    1.057 --    68 C    0.988
    99   1 H    1.042 --    70 C    0.997
   100   1 H    1.036 --    71 C    0.998
   101   1 H    1.037 --    76 C    0.998
   102   1 H    1.043 --    77 C    0.996
   103   1 H    1.057 --    82 C    0.988
   104   1 H    1.056 --    83 C    0.983
   105   1 H    1.055 --    85 C    0.983
   106   1 H    1.057 --    86 C    0.988
   107   1 H    1.044 --    88 C    0.997
   108   1 H    1.026 --    89 C    0.993
   109   6 C    3.809 --   110 C    2.509   111 C    1.321
   110   6 C    3.798 --   109 C    2.509    20 C    1.212   112 C    0.179
   111   6 C    3.807 --   112 C    2.507   109 C    1.321
   112   6 C    3.800 --   111 C    2.507   122 C    1.214   110 C    0.179
   113   6 C    3.808 --   114 C    2.497   115 C    1.330
   114   6 C    3.800 --   113 C    2.497   140 C    1.222   116 C    0.179
   115   6 C    3.807 --   116 C    2.497   113 C    1.330
   116   6 C    3.800 --   115 C    2.497   175 C    1.223   114 C    0.179
   117   6 C    3.807 --   118 C    2.501   119 C    1.326
   118   6 C    3.801 --   117 C    2.501   193 C    1.220   120 C    0.179
   119   6 C    3.809 --   120 C    2.504   117 C    1.326
   120   6 C    3.799 --   119 C    2.504    74 C    1.216   118 C    0.179
   121  28 Ni   3.302 --   138 N    0.709   145 N    0.709   127 N    0.708
                           157 N    0.708
   122   6 C    3.817 --   156 C    1.298   123 C    1.298   112 C    1.214
   123   6 C    3.923 --   122 C    1.298   127 N    1.279   124 C    1.228
   124   6 C    3.830 --   125 C    1.621   123 C    1.228   158 H    0.998
   125   6 C    3.824 --   124 C    1.621   126 C    1.219   159 H    0.997
   126   6 C    3.901 --   128 C    1.367   127 N    1.238   125 C    1.219
   127   7 N    3.009 --   123 C    1.279   126 C    1.238   121 Ni   0.708
   128   6 C    3.832 --   126 C    1.367   135 C    1.366   129 C    1.049
   129   6 C    3.908 --   134 C    1.428   130 C    1.427   128 C    1.049
   130   6 C    3.872 --   131 C    1.447   129 C    1.427   160 H    0.988
                           133 C    0.101
   131   6 C    4.000 --   132 N    1.479   130 C    1.447   161 H    0.983
                           134 C    0.101
   132   7 N    2.939 --   133 C    1.479   131 C    1.479
   133   6 C    3.999 --   132 N    1.479   134 C    1.447   162 H    0.983
                           130 C    0.101
   134   6 C    3.872 --   133 C    1.447   129 C    1.428   163 H    0.988
                           131 C    0.101
   135   6 C    3.900 --   128 C    1.366   138 N    1.237   136 C    1.220
   136   6 C    3.823 --   137 C    1.619   135 C    1.220   164 H    0.997
   137   6 C    3.831 --   136 C    1.619   139 C    1.229   165 H    0.998
   138   7 N    3.011 --   139 C    1.281   135 C    1.237   121 Ni   0.709
   139   6 C    3.921 --   140 C    1.294   138 N    1.281   137 C    1.229
   140   6 C    3.817 --   141 C    1.295   139 C    1.294   114 C    1.222
   141   6 C    3.921 --   140 C    1.295   145 N    1.281   142 C    1.229
   142   6 C    3.831 --   143 C    1.619   141 C    1.229   166 H    0.998
   143   6 C    3.823 --   142 C    1.619   144 C    1.220   167 H    0.997
   144   6 C    3.900 --   146 C    1.366   145 N    1.237   143 C    1.220
   145   7 N    3.011 --   141 C    1.281   144 C    1.237   121 Ni   0.709
   146   6 C    3.831 --   153 C    1.368   144 C    1.366   147 C    1.047
   147   6 C    3.909 --   148 C    1.428   152 C    1.428   146 C    1.047
   148   6 C    3.872 --   149 C    1.447   147 C    1.428   168 H    0.988
                           151 C    0.101
   149   6 C    4.000 --   150 N    1.479   148 C    1.447   169 H    0.983
                           152 C    0.101
   150   7 N    2.939 --   149 C    1.479   151 C    1.479
   151   6 C    4.000 --   150 N    1.479   152 C    1.447   170 H    0.983
                           148 C    0.101
   152   6 C    3.872 --   151 C    1.447   147 C    1.428   171 H    0.988
                           149 C    0.101
   153   6 C    3.901 --   146 C    1.368   157 N    1.237   154 C    1.219
   154   6 C    3.824 --   155 C    1.621   153 C    1.219   172 H    0.997
   155   6 C    3.831 --   154 C    1.621   156 C    1.228   173 H    0.998
   156   6 C    3.923 --   122 C    1.298   157 N    1.280   155 C    1.228
   157   7 N    3.009 --   156 C    1.280   153 C    1.237   121 Ni   0.708
   158   1 H    1.038 --   124 C    0.998
   159   1 H    1.044 --   125 C    0.997
   160   1 H    1.057 --   130 C    0.988
   161   1 H    1.056 --   131 C    0.983
   162   1 H    1.055 --   133 C    0.983
   163   1 H    1.057 --   134 C    0.988
   164   1 H    1.044 --   136 C    0.997
   165   1 H    1.038 --   137 C    0.998
   166   1 H    1.038 --   142 C    0.998
   167   1 H    1.044 --   143 C    0.997
   168   1 H    1.057 --   148 C    0.988
   169   1 H    1.055 --   149 C    0.983
   170   1 H    1.056 --   151 C    0.983
   171   1 H    1.057 --   152 C    0.988
   172   1 H    1.044 --   154 C    0.997
   173   1 H    1.038 --   155 C    0.998
   174  28 Ni   3.316 --   180 N    0.711   210 N    0.710   198 N    0.710
                           191 N    0.710
   175   6 C    3.816 --   176 C    1.294   209 C    1.293   116 C    1.223
   176   6 C    3.921 --   175 C    1.294   180 N    1.280   177 C    1.230
   177   6 C    3.831 --   178 C    1.618   176 C    1.230   211 H    0.998
   178   6 C    3.823 --   177 C    1.618   179 C    1.221   212 H    0.997
   179   6 C    3.901 --   181 C    1.365   180 N    1.237   178 C    1.221
   180   7 N    3.010 --   176 C    1.280   179 C    1.237   174 Ni   0.711
   181   6 C    3.832 --   188 C    1.366   179 C    1.365   182 C    1.052
   182   6 C    3.908 --   183 C    1.426   187 C    1.426   181 C    1.052
   183   6 C    3.872 --   184 C    1.447   182 C    1.426   213 H    0.988
                           186 C    0.101
   184   6 C    3.999 --   185 N    1.479   183 C    1.447   214 H    0.983
                           187 C    0.101
   185   7 N    2.939 --   184 C    1.479   186 C    1.478
   186   6 C    4.000 --   185 N    1.478   187 C    1.447   215 H    0.983
                           183 C    0.101
   187   6 C    3.871 --   186 C    1.447   182 C    1.426   216 H    0.988
                           184 C    0.101
   188   6 C    3.901 --   181 C    1.366   191 N    1.237   189 C    1.220
   189   6 C    3.824 --   190 C    1.619   188 C    1.220   217 H    0.997
   190   6 C    3.830 --   189 C    1.619   192 C    1.229   218 H    0.998
   191   7 N    3.009 --   192 C    1.279   188 C    1.237   174 Ni   0.710
   192   6 C    3.922 --   193 C    1.295   191 N    1.279   190 C    1.229
   193   6 C    3.816 --   192 C    1.295   194 C    1.295   118 C    1.220
   194   6 C    3.922 --   193 C    1.295   198 N    1.279   195 C    1.229
   195   6 C    3.830 --   196 C    1.619   194 C    1.229   219 H    0.998
   196   6 C    3.824 --   195 C    1.619   197 C    1.220   220 H    0.997
   197   6 C    3.901 --   199 C    1.366   198 N    1.237   196 C    1.220
   198   7 N    3.009 --   194 C    1.279   197 C    1.237   174 Ni   0.710
   199   6 C    3.832 --   206 C    1.366   197 C    1.366   200 C    1.050
   200   6 C    3.908 --   205 C    1.427   201 C    1.427   199 C    1.050
   201   6 C    3.872 --   202 C    1.447   200 C    1.427   221 H    0.988
                           204 C    0.101
   202   6 C    4.000 --   203 N    1.478   201 C    1.447   222 H    0.983
                           205 C    0.101
   203   7 N    2.939 --   204 C    1.479   202 C    1.478
   204   6 C    3.999 --   203 N    1.479   205 C    1.447   223 H    0.983
                           201 C    0.101
   205   6 C    3.872 --   204 C    1.447   200 C    1.427   224 H    0.988
                           202 C    0.101
   206   6 C    3.901 --   199 C    1.366   210 N    1.236   207 C    1.220
   207   6 C    3.824 --   208 C    1.619   206 C    1.220   225 H    0.997
   208   6 C    3.831 --   207 C    1.619   209 C    1.230   226 H    0.998
   209   6 C    3.921 --   175 C    1.293   210 N    1.280   208 C    1.230
   210   7 N    3.010 --   209 C    1.280   206 C    1.236   174 Ni   0.710
   211   1 H    1.038 --   177 C    0.998
   212   1 H    1.045 --   178 C    0.997
   213   1 H    1.057 --   183 C    0.988
   214   1 H    1.055 --   184 C    0.983
   215   1 H    1.056 --   186 C    0.983
   216   1 H    1.057 --   187 C    0.988
   217   1 H    1.045 --   189 C    0.997
   218   1 H    1.037 --   190 C    0.998
   219   1 H    1.037 --   195 C    0.998
   220   1 H    1.045 --   196 C    0.997
   221   1 H    1.057 --   201 C    0.988
   222   1 H    1.056 --   202 C    0.983
   223   1 H    1.055 --   204 C    0.983
   224   1 H    1.057 --   205 C    0.988
   225   1 H    1.044 --   207 C    0.997
   226   1 H    1.038 --   208 C    0.998
 ---------------------------------------------------------------------------

Topologies differ in total number of bonds
Writing topology from bond orders to xtbtopo.mol

 dipole moment from electron density (au)
     X       Y       Z   
-108.6646   0.0019   0.0505  total (Debye):  276.198


           -------------------------------------------------
          | TOTAL ENERGY             -462.123872419912 Eh   |
          | GRADIENT NORM               0.083593639399 Eh/α |
          | HOMO-LUMO GAP               0.146613137667 eV   |
           -------------------------------------------------
########################################################################
[WARNING] Runtime exception occurred
-1- restart_readRestart: Dimension missmatch in restart file.
########################################################################

------------------------------------------------------------------------
 * finished run on 2022/07/30 at 02:32:49.898     
------------------------------------------------------------------------
 total:
 * wall-time:     0 d,  0 h,  0 min, 35.856 sec
 *  cpu-time:     0 d,  0 h,  0 min, 35.560 sec
 * ratio c/w:     0.992 speedup
 SCF:
 * wall-time:     0 d,  0 h,  0 min, 34.868 sec
 *  cpu-time:     0 d,  0 h,  0 min, 34.585 sec
 * ratio c/w:     0.992 speedup

