128
 energy: -222.881895017180 gnorm: 0.400313743227 xtb: 6.5.1 (b24c23e)
C           11.17875700000000        0.03116500000000       -0.11154400000000
C           11.91351300000000       -1.25107100000000       -0.60903200000000
C           11.31842900000000       -2.34404300000000       -1.19583600000000
C           12.34388800000000       -3.29443400000000       -1.44014600000000
C           13.53005500000000       -2.75002600000000       -0.98715000000000
N           13.26356600000000       -1.48205000000000       -0.53544000000000
C           14.94785600000000       -3.45702700000000       -0.96272200000000
C           14.97704600000000       -4.92784600000000       -1.13110800000000
C           15.27093100000000       -5.49894000000000       -2.37662900000000
C           15.28653500000000       -6.88698500000000       -2.52816500000000
C           15.00648600000000       -7.70265500000000       -1.42852200000000
C           15.01771500000000       -9.17290900000000       -1.56505400000000
O           15.25573200000000       -9.74642400000000       -2.62174700000000
C           14.71180300000000       -7.14358000000000       -0.18108300000000
C           14.69716100000000       -5.75602500000000       -0.03660100000000
C           16.07778600000000       -2.73992200000000       -0.72044900000000
C           17.37859300000000       -3.37042700000000       -0.62527800000000
C           18.27985500000000       -2.43351200000000       -0.35482100000000
N           16.27536000000000       -1.40178800000000       -0.50492200000000
C           17.60323199999999       -1.15428900000000       -0.27123500000000
C           18.26892700000000       -0.00019300000000        0.00005300000000
C           17.49082300000000        1.38117500000000        0.06615500000000
C           18.03292400000000        2.63375100000000       -0.14505100000000
C           17.00636100000000        3.58609000000000        0.07251400000000
C           15.86312800000000        2.88776900000000        0.39847500000000
N           16.15460400000000        1.54511800000000        0.33968000000000
C           14.45075400000000        3.51392200000000        0.75452600000000
C           14.41059200000000        4.91986000000000        1.21128700000000
C           14.70744700000000        5.24336300000000        2.54105600000000
C           14.67898700000000        6.57399100000000        2.96492300000000
C           14.35503900000000        7.58125100000000        2.05189400000000
C           14.32086500000000        8.99494600000000        2.47689800000000
O           14.56018700000000        9.35728800000000        3.62312400000000
C           14.05778900000000        7.27025800000000        0.72105000000000
C           14.08715100000000        5.93911900000000        0.30448600000000
C           13.32599000000000        2.76365100000000        0.62657000000000
C           12.00133900000000        3.27128600000000        0.93835300000000
C           11.11679900000000        2.31007800000000        0.68971300000000
C           11.84151900000000        1.15477700000000        0.22080400000000
N           13.16401400000000        1.47083100000000        0.21454000000000
H           10.09927600000000       -0.00279200000000       -0.02469200000000
H           10.26594600000000       -2.45231400000000       -1.40878500000000
H           12.22475300000000       -4.27534000000000       -1.87484200000000
H           13.95778800000000       -0.81837100000000       -0.20021800000000
H           15.49058500000000       -4.84710100000000       -3.22004700000000
H           15.51804900000000       -7.31997300000000       -3.49719600000000
H           14.79491400000000       -9.74474800000000       -0.64887800000000
H           14.49356300000000       -7.76325000000000        0.68239600000000
H           14.47192600000000       -5.29986900000000        0.92568300000000
H           17.59115900000000       -4.41786600000000       -0.74255400000000
H           19.33112700000000       -2.61589000000000       -0.22662800000000
H           19.05737200000000        2.84387100000000       -0.41246600000000
H           17.09436200000000        4.65967800000000        0.00360200000000
H           15.47139400000000        0.79743300000000        0.42974000000000
H           14.95730200000000        4.44589300000000        3.23822800000000
H           14.90898100000000        6.81384500000000        3.99901100000000
H           14.06385900000000        9.72856800000000        1.69412600000000
H           13.80272200000000        8.04079700000000        0.00027200000000
H           13.85614300000000        5.67371600000000       -0.72612800000000
H           11.76924500000000        4.25301000000000        1.30973100000000
H           10.05192400000000        2.37339400000000        0.81932100000000
C           34.76050100000000        0.03562000000000       -0.11019500000000
C           34.02574499999999        1.37845800000000        0.18714600000000
C           34.62082900000000        2.61336400000000        0.30518500000000
C           33.59537000000000        3.53965100000000        0.62910200000000
C           32.40920300000000        2.83539800000000        0.70402400000000
N           32.67569200000000        1.52982000000000        0.37650500000000
C           30.99140100000000        3.41010200000000        1.11653100000000
C           30.96221200000000        4.72729200000000        1.79230800000000
C           30.66832600000000        5.89337200000000        1.07277500000000
C           30.65272300000000        7.13234300000000        1.71665500000000
C           30.93277200000000        7.20103000000000        3.08406700000000
C           30.92154200000000        8.50007900000000        3.78603400000000
O           30.68352600000000        9.56342800000000        3.22495700000000
C           31.22745500000000        6.04388700000000        3.81186400000000
C           31.24209700000000        4.80923600000000        3.16238500000000
C           29.86147100000000        2.67904900000000        0.92032600000000
C           28.56066500000000        3.15086300000000        1.34926100000000
C           27.65940200000000        2.22128400000000        1.05457400000000
N           29.66389800000000        1.44610900000000        0.35737400000000
C           28.33602600000000        1.11055100000000        0.41452100000000
C           27.67033100000000       -0.00019300000000        0.00005300000000
C           28.44843500000000       -1.18621700000000       -0.71120900000000
C           27.90633400000000       -2.11125500000000       -1.58176000000000
C           28.93289700000000       -3.02432700000000       -1.92901100000000
C           30.07613000000000       -2.62410900000000       -1.27043000000000
N           29.78465300000000       -1.47435200000000       -0.57456600000000
C           31.48850300000000       -3.34260100000000       -1.32151600000000
C           31.52866600000000       -4.76577100000000       -1.72136100000000
C           31.23181100000000       -5.77257800000000       -0.79438800000000
C           31.26027100000000       -7.11484200000000       -1.17982900000000
C           31.58421900000000       -7.44645600000000       -2.49824600000000
C           31.61839200000000       -8.85846500000000       -2.92881900000000
O           31.37907100000000       -9.79577500000000       -2.17610600000000
C           31.88146800000000       -6.44946200000000       -3.43305400000000
C           31.85210700000000       -5.11082400000000       -3.04125500000000
C           32.61326700000000       -2.64736500000000       -1.01179600000000
C           33.93791900000000       -3.24268800000000       -1.03397100000000
C           34.82245800000000       -2.30499800000000       -0.70765600000000
C           34.09773900000000       -1.08363000000000       -0.45694900000000
N           32.77524400000000       -1.34312500000000       -0.63747900000000
H           35.83998100000000        0.01569600000000       -0.01909400000000
H           35.67331200000000        2.82157500000000        0.18806200000000
H           33.71450500000000        4.59693800000000        0.81153700000000
H           31.98147000000000        0.79165900000000        0.28727200000000
H           30.44867300000000        5.81886900000000        0.00943200000000
H           30.42120800000000        8.03014100000000        1.15056500000000
H           31.14434300000000        8.46765900000000        4.86553800000000
H           31.44569500000000        6.08049500000000        4.87405300000000
H           31.46733200000000        3.89590400000000        3.71001100000000
H           28.34809900000000        4.08743200000000        1.83270900000000
H           26.60813100000000        2.30192000000000        1.26240400000000
H           26.88188500000000       -2.13774500000000       -1.92081700000000
H           28.84489500000000       -3.87937200000000       -2.58188100000000
H           30.46786300000000       -0.90220400000000       -0.08488200000000
H           30.98195500000000       -5.49578000000000        0.22805400000000
H           31.03027600000000       -7.88803200000000       -0.45247400000000
H           31.87539900000000       -9.03465700000000       -3.98706700000000
H           32.13653600000000       -6.69075800000000       -4.46019900000000
H           32.08311500000000       -4.31830400000000       -3.75154600000000
H           34.17001299999999       -4.26553200000000       -1.26954200000000
H           35.88733400000000       -2.42957600000000       -0.63493900000000
C           23.57354900000000        0.00111900000000        0.00848500000000
C           22.36461000000000       -0.01233600000000        0.00003800000000
C           20.94308100000000       -0.00351700000000       -0.01194500000000
C           19.73141100000000        0.00392200000000       -0.00108200000000
C           24.99015300000000       -0.00555600000000        0.00901900000000
C           26.21084900000000        0.00392200000000       -0.00108200000000
128
 energy: -222.978063675118 gnorm: 0.229681986803 xtb: 6.5.1 (b24c23e)
C           11.22322344367114       -0.00903062303415       -0.12783461560824
C           11.91682594155608       -1.23430070045995       -0.60490397324727
C           11.32736086231138       -2.35293141428094       -1.18885210132616
C           12.34330275433889       -3.29480849452564       -1.42811028424448
C           13.55065703726532       -2.75122303547489       -0.98485701833303
N           13.26885662571330       -1.48210617890340       -0.52999179026371
C           14.90695334404288       -3.42123492003608       -0.95895994084429
C           14.95454672648966       -4.90760710850537       -1.13425202761159
C           15.26716900240940       -5.49249476552758       -2.37067209281122
C           15.28639949393405       -6.87607447713292       -2.52037647740126
C           15.00609004054849       -7.70106651953840       -1.42639191210646
C           15.01941451673874       -9.17089514974111       -1.57373345112248
O           15.25475166321798       -9.73777156202882       -2.61599501924357
C           14.71351196455775       -7.13012803751672       -0.18397556513828
C           14.69189322566098       -5.74694337404991       -0.04212228668365
C           16.07443960243858       -2.72462245599628       -0.71322775306382
C           17.37760619888473       -3.37842292031187       -0.62545362304931
C           18.28800257318572       -2.43496627421876       -0.35463356184574
N           16.26271502520606       -1.38525627447922       -0.48848498289978
C           17.59337397082600       -1.15481921495879       -0.26982606804855
C           18.25831596095442        0.04314155319595       -0.02784846540353
C           17.49909746429289        1.36356821372106        0.06177065125898
C           18.03211749069943        2.63591414232479       -0.13089035986853
C           17.01046469962252        3.57887322253320        0.08251831531528
C           15.84627240255443        2.88461596409985        0.40168470950300
N           16.15811758545875        1.54026044082364        0.34379084247590
C           14.49451484110969        3.48284739320593        0.74181190623659
C           14.43543069449057        4.90458107477485        1.19939844182118
C           14.71316419305367        5.24026038103235        2.53204729268454
C           14.67687134992251        6.56528620323317        2.95571114783290
C           14.35450505789758        7.58032203690346        2.04926554366176
C           14.32320493461159        8.99150306462612        2.48475262902290
O           14.55915092611984        9.34969942340254        3.61576220958942
C           14.05767651985531        7.25641245489680        0.72150915335879
C           14.09066391315932        5.92985174063792        0.30571739666783
C           13.33202714196061        2.75041313223051        0.62803779235373
C           12.00402809215094        3.28118560428931        0.94114685610310
C           11.11374429182302        2.31280754732869        0.69181650969194
C           11.85952109420366        1.15124735383258        0.22447865489119
N           13.18468785051161        1.45806919743276        0.21289304272060
H           10.13644030616067       -0.03435487413181       -0.04606113548149
H           10.27541726089586       -2.45969554514626       -1.40933243704165
H           12.22214847940246       -4.27143394093244       -1.87174914954042
H           13.96039195733205       -0.81904696899040       -0.19891537356110
H           15.48811868392401       -4.84943339888757       -3.21711444502068
H           15.51607429659634       -7.31699560050357       -3.48730377420805
H           14.79548506039684       -9.74001565202380       -0.65083401229905
H           14.49611887638752       -7.75784913950423        0.67597392946434
H           14.47057368172176       -5.30073665409059        0.92255393120399
H           17.58092753768330       -4.42909573424050       -0.74604048744116
H           19.34284243277327       -2.60647809448007       -0.22497577016344
H           19.05327210677068        2.84850304530683       -0.40792570546534
H           17.09821897731323        4.65244542092444        0.00504646051200
H           15.47578485000070        0.79559806959054        0.43014176170943
H           14.95831661002950        4.44968182837135        3.23505700444022
H           14.90564845272951        6.81307660408937        3.98921691523088
H           14.06439802176613        9.72348953506765        1.69523043530217
H           13.80424458293895        8.03405173435841        0.00584780163997
H           13.85841525083574        5.67405655259259       -0.72354091386051
H           11.77897025735461        4.26665893062855        1.31162540981023
H           10.04509798719980        2.36888497979589        0.81751350713173
C           34.71604045585291        0.07809307479785       -0.10145299722923
C           34.02243355514636        1.36221945036203        0.18127867916103
C           34.61189492931280        2.61688214364938        0.31592269977218
C           33.59594029288839        3.53328509214581        0.63932213987667
C           32.38859943287051        2.83511414703532        0.70658721510026
N           32.67040530066064        1.52683886394328        0.38107185191536
C           31.03224792734010        3.37818536665837        1.09978925742580
C           30.98470402002954        4.71217265146355        1.77845209991820
C           30.67209136603898        5.88469415911184        1.07415171141155
C           30.65286075367270        7.11893694364721        1.71708127168101
C           30.93316831151510        7.19852237202792        3.08495573969692
C           30.91984297271102        8.50321583683561        3.77769436063807
O           30.68450638944573        9.55303603859439        3.22494245248159
C           31.22574595215386        6.03429209891998        3.80198828587397
C           31.24736244739538        4.80473279147297        3.15274394833066
C           29.86473617648823        2.66231659919937        0.91784740897040
C           28.56165780027559        3.15777789528099        1.35356591683993
C           27.65113856147709        2.22268746687264        1.05558380294480
N           29.67612158689329        1.42307900848792        0.36207312542015
C           28.34537986934756        1.11037313819491        0.41636326304156
C           27.67941325719782       -0.02113575963971       -0.04542008870029
C           28.43978960265330       -1.16903682056537       -0.70473321109546
C           27.90707331320019       -2.12073914861372       -1.57112885121308
C           28.92875770219753       -3.02374601809589       -1.91664383283897
C           30.09288559333334       -2.62312550884133       -1.26595168873269
N           29.78091391112186       -1.47245010427274       -0.56831472774383
C           31.44470220260182       -3.30965109304715       -1.31484378267225
C           31.50380419262271       -4.74644016860467       -1.72277334544212
C           31.22608878678203       -5.76499057195727       -0.80016290727190
C           31.26238693819063       -7.10248296166242       -1.18266433642013
C           31.58475242037951       -7.44422167937321       -2.49991689265790
C           31.61605285775260       -8.85995522655449       -2.92037299871388
O           31.38010695328688       -9.78537550330933       -2.17802164342070
C           31.88158068516681       -6.43818990479708       -3.42498699268371
C           31.84858839665970       -5.10378734597934       -3.03508288203371
C           32.60721228135537       -2.63715667094877       -1.00323465582753
C           33.93521740820481       -3.25247392028097       -1.03713891050367
C           34.82550676476858       -2.30843978477347       -0.70742169252098
C           34.07973874535964       -1.08273148995508       -0.45193423958438
N           32.75456714153000       -1.33158363689372       -0.63176971258610
H           35.80282165807320        0.05380585148717       -0.01936462809045
H           35.66383899837030        2.82801953822631        0.19170166303054
H           33.71709921215132        4.59197052843939        0.81194534209229
H           31.97887044100328        0.79149347693593        0.28873096888914
H           30.45113787081775        5.81918042177034        0.01316299014284
H           30.42318332558987        8.02217064684355        1.15714363893200
H           31.14377168690502        8.46480533679615        4.86128447086227
H           31.44313886480346        6.07955937625941        4.86570838539726
H           31.46868286317226        3.89835795495560        3.70788712382313
H           28.35838904249198        4.09883757185543        1.83607067850581
H           26.59633473115185        2.29334609743140        1.25865425207023
H           26.88594071982084       -2.14409746122094       -1.91958768257848
H           28.84103322714941       -3.87407081321847       -2.57662113359452
H           30.46334007583162       -0.90082520699545       -0.08344011373251
H           30.98093888955278       -5.49717172809182        0.22331604634850
H           31.03360988580170       -7.88195554176526       -0.46019694590162
H           31.87485966448749       -9.03104273799320       -3.98333063716001
H           32.13501320815827       -6.68823436486651       -4.45181429785632
H           32.08084130196258       -4.32001889704659       -3.74958078760600
H           34.16027942982451       -4.27793863667180       -1.27553728233431
H           35.89415457732449       -2.42482575827644       -0.63394328695374
C           23.58866193453069       -0.00063352034095        0.00795970841599
C           22.35168482256066       -0.00976108007280        0.00107637345612
C           20.94787599484221        0.00427680335281       -0.00717736280441
C           19.71232099285543        0.02786020499970        0.00020964479801
C           24.99038917728732       -0.01210268870474        0.01137813898882
C           26.22656595993629       -0.02119593622287       -0.02029178513487
128
 energy: -223.029508247452 gnorm: 0.058042115664 xtb: 6.5.1 (b24c23e)
C           11.28175182181919       -0.05665557568392       -0.14813081257948
C           11.92505275492968       -1.21126746004807       -0.59553615170841
C           11.34349662497217       -2.36628616593839       -1.17821055111087
C           12.34248816038480       -3.29263904122949       -1.41129933556737
C           13.58346653476091       -2.75387138459294       -0.97770731194778
N           13.28049509578790       -1.47958760339132       -0.53041670778599
C           14.85731757522509       -3.37435186854111       -0.95160501317146
C           14.93391409787233       -4.88086679770412       -1.13718768408179
C           15.25975827749272       -5.48013781568265       -2.36436141901065
C           15.28497086649686       -6.85998094105405       -2.51095816007965
C           15.00496680415758       -7.69597896979040       -1.42291410655492
C           15.02190924866527       -9.16725200564951       -1.58245584521049
O           15.25499839977321       -9.73007056162037       -2.61674572989169
C           14.71427920641607       -7.11156103073020       -0.18683023585533
C           14.68540129784638       -5.73177334220779       -0.04874381399596
C           16.07333838696438       -2.70849980473861       -0.69985616789700
C           17.37311551110018       -3.38086278584849       -0.62534879470805
C           18.29375784210587       -2.43314895129236       -0.35533136757501
N           16.26113306108427       -1.36987642237158       -0.46996953190076
C           17.59026300117626       -1.15617945212417       -0.26059145990158
C           18.25306554445251        0.09060913517792       -0.04222163308128
C           17.51324888582258        1.33603015892944        0.05581548794030
C           18.02977266359109        2.64010206754290       -0.11558532128317
C           17.01979382718712        3.56708736723521        0.09827217171614
C           15.82456017352660        2.87785705356146        0.40800987956569
N           16.16359244863697        1.53058619377115        0.33666988222247
C           14.55170646078174        3.44038902691038        0.72530054287653
C           14.46176742437525        4.88324102448005        1.18381243228836
C           14.72103194210864        5.23220543610894        2.51905878832143
C           14.67544345244012        6.55217806373946        2.94322100634596
C           14.35412728957379        7.57643579655789        2.04414533646689
C           14.32536553192531        8.98653774734230        2.49239628641858
O           14.55976276047457        9.34179937722118        3.61478998136061
C           14.05836213781056        7.23773375764396        0.72029948999404
C           14.09913004316305        5.91507375113062        0.30420969662454
C           13.33994623356055        2.73667530646132        0.63309602626248
C           12.01292937431556        3.28582271368922        0.94334715402484
C           11.11715276912003        2.31107939773274        0.69347312298885
C           11.87839780291937        1.14805561616941        0.23114371922246
N           13.20214837782110        1.44708885652325        0.21847121519225
H           10.18617837331576       -0.06400451755638       -0.07557694703280
H           10.29110076677712       -2.46837964194035       -1.40746611560960
H           12.21985913597944       -4.26540786926842       -1.86517572970607
H           13.96916238057219       -0.81616556721108       -0.19995893284357
H           15.48460262760507       -4.84840103616722       -3.21633516694889
H           15.51564171339927       -7.31067133188969       -3.47438872139436
H           14.79503611834151       -9.73113810663550       -0.64953784852446
H           14.50062595564553       -7.74863689125622        0.66937080587971
H           14.46605260718649       -5.29849694180120        0.92054926334201
H           17.56333559365417       -4.43468466956824       -0.75043898516854
H           19.35129443749913       -2.59169212277119       -0.22337968132896
H           19.04866292516995        2.85508529281983       -0.40068994854839
H           17.10394249558179        4.64140261095912        0.01040807285847
H           15.48068822855838        0.78837322480593        0.42532315582346
H           14.96308764299453        4.45045847186649        3.23103494187113
H           14.89980665763085        6.80943707769848        3.97665859469361
H           14.06432717498122        9.71525609325380        1.69214808071927
H           13.80354052553627        8.02344115578217        0.01174927671153
H           13.86188780525051        5.67213228667168       -0.72483624462059
H           11.79637574146378        4.27574426154985        1.31045163175570
H           10.04530226691055        2.35890025656623        0.81260387819283
C           34.65751127849953        0.12897394005019       -0.09191996040466
C           34.01420992937017        1.33785618548058        0.17629953682785
C           34.59577135789895        2.62208390926119        0.33218624339018
C           33.59677753483526        3.52215956944786        0.65210579200180
C           32.35582754808967        2.83336576480979        0.71401480982201
N           32.65876947418210        1.52498453844075        0.37932534193932
C           31.08199943428377        3.33522809560581        1.07996541010396
C           31.00535397569876        4.69162518091020        1.76121637947983
C           30.67949849142841        5.87094497724078        1.07256046944599
C           30.65428770888017        7.10034419926004        1.71599972256832
C           30.93429150954555        7.19237010937271        3.08503748689636
C           30.91734592289243        8.50502922965996        3.76842559356944
O           30.68425956975476        9.54704884895036        3.22005230490109
C           31.22498199179657        6.02044224820786        3.78933270714612
C           31.25386313695311        4.79580848100442        3.13884622042170
C           29.86607446204975        2.64159362467596        0.92015030250128
C           28.56631870590875        3.15974398779972        1.35515807369948
C           27.64572031560493        2.22140820131745        1.05412656253588
N           29.67840637816416        1.40029413180906        0.36867549735084
C           28.34940055074118        1.10690601857629        0.42404785005765
C           27.68558661414509       -0.05082128467543       -0.08607757549820
C           28.42562305048106       -1.14265796162572       -0.69483772727133
C           27.90926322149706       -2.13289821506068       -1.56059058655375
C           28.91935556980534       -3.02271476605108       -1.89698058830574
C           30.11451638607498       -2.62108053094453       -1.25684386373449
N           29.77530335715628       -1.46055725412458       -0.56874692974796
C           31.38747244005862       -3.26514007538989       -1.30500329258237
C           31.47743376747754       -4.72001419694081       -1.72390439480958
C           31.21821342866350       -5.75107029853259       -0.80650202239541
C           31.26381813754307       -7.08463670250800       -1.18578289582677
C           31.58513010427982       -7.43814067853211       -2.50201861818155
C           31.61389044549770       -8.86005956397056       -2.91125761100105
O           31.37949619810046       -9.77825723020720       -2.17444648877759
C           31.88089553800656       -6.42196568827817       -3.41562434759728
C           31.84010901021450       -5.09064138680553       -3.02813359134888
C           32.59927723328687       -2.62852538101215       -0.99139403026620
C           33.92630197826716       -3.25755118585409       -1.03787756364689
C           34.82209083918782       -2.30792511516562       -0.70508252174441
C           34.06086081848471       -1.08377506293527       -0.44461446679231
N           32.73710344732037       -1.32553737990077       -0.62104073782844
H           35.75308358280697        0.09484684567556       -0.02747086428120
H           35.64816466276852        2.83420428945997        0.19807334262772
H           33.71940794767482        4.58331266933594        0.81407331610886
H           31.97009743646641        0.78968221357255        0.28627686953295
H           30.45465555602009        5.81789875232645        0.01324930948853
H           30.42361482953542        8.00975929038600        1.16438586600271
H           31.14422017015090        8.45670256544337        4.85744596945332
H           31.43863183003068        6.07556442376315        4.85512048511384
H           31.47320516347619        3.89761631048748        3.70498605575639
H           28.37597396328140        4.10594619571401        1.83556856559878
H           26.58806803961519        2.27999982225296        1.25163024743057
H           26.89046074361821       -2.15361200463035       -1.91727850691747
H           28.83527578669803       -3.86783584051089       -2.56606245113333
H           30.45837397754786       -0.89216202247695       -0.08348954422525
H           30.97616254547728       -5.49558317813684        0.21954205245314
H           31.03945417652434       -7.87195129570402       -0.46862531338087
H           31.87493113760785       -9.02247950825304       -3.98132599637462
H           32.13572020512612       -6.68266988648376       -4.44101000944115
H           32.07736375120039       -4.31769279872955       -3.74959048095627
H           34.14286448802689       -4.28484488108532       -1.28155091775602
H           35.89394263098085       -2.41379965739838       -0.63248697711197
C           23.59502324330006       -0.00427602850305        0.00801203062907
C           22.34259751372521       -0.00611882845284        0.00741860329541
C           20.95442662876158        0.01260847623465       -0.00680022907083