      -----------------------------------------------------------      
     |                   =====================                   |     
     |                           x T B                           |     
     |                   =====================                   |     
     |                         S. Grimme                         |     
     |          Mulliken Center for Theoretical Chemistry        |     
     |                    University of Bonn                     |     
      -----------------------------------------------------------      

   * xtb version 6.5.1 (b24c23e) compiled by 'conda@728c89f4b128' on 2022-07-12

   xtb is free software: you can redistribute it and/or modify it under
   the terms of the GNU Lesser General Public License as published by
   the Free Software Foundation, either version 3 of the License, or
   (at your option) any later version.
   
   xtb is distributed in the hope that it will be useful,
   but WITHOUT ANY WARRANTY; without even the implied warranty of
   MERCHANTABILITY or FITNESS FOR A PARTICULAR PURPOSE.  See the
   GNU Lesser General Public License for more details.
   
   Cite this work as:
   * C. Bannwarth, E. Caldeweyher, S. Ehlert, A. Hansen, P. Pracht,
     J. Seibert, S. Spicher, S. Grimme, WIREs Comput. Mol. Sci., 2020, 11,
     e01493. DOI: 10.1002/wcms.1493
   
   for GFN2-xTB:
   * C. Bannwarth, S. Ehlert and S. Grimme., J. Chem. Theory Comput., 2019,
     15, 1652-1671. DOI: 10.1021/acs.jctc.8b01176
   for GFN1-xTB:
   * S. Grimme, C. Bannwarth, P. Shushkov, J. Chem. Theory Comput., 2017,
     13, 1989-2009. DOI: 10.1021/acs.jctc.7b00118
   for GFN0-xTB:
   * P. Pracht, E. Caldeweyher, S. Ehlert, S. Grimme, ChemRxiv, 2019, preprint.
     DOI: 10.26434/chemrxiv.8326202.v1
   for GFN-FF:
   * S. Spicher and S. Grimme, Angew. Chem. Int. Ed., 2020, 59, 15665-15673.
     DOI: 10.1002/anie.202004239
   
   for ALPB and GBSA implicit solvation:
   * S. Ehlert, M. Stahn, S. Spicher, S. Grimme, J. Chem. Theory Comput.,
     2021, 17, 4250-4261. DOI: 10.1021/acs.jctc.1c00471
   
   for DFT-D4:
   * E. Caldeweyher, C. Bannwarth and S. Grimme, J. Chem. Phys., 2017,
     147, 034112. DOI: 10.1063/1.4993215
   * E. Caldeweyher, S. Ehlert, A. Hansen, H. Neugebauer, S. Spicher,
     C. Bannwarth and S. Grimme, J. Chem. Phys., 2019, 150, 154122.
     DOI: 10.1063/1.5090222
   * E. Caldeweyher, J.-M. Mewes, S. Ehlert and S. Grimme, Phys. Chem. Chem. Phys.
     2020, 22, 8499-8512. DOI: 10.1039/D0CP00502A
   
   for sTDA-xTB:
   * S. Grimme and C. Bannwarth, J. Chem. Phys., 2016, 145, 054103.
     DOI: 10.1063/1.4959605
   
   in the mass-spec context:
   * V. Asgeirsson, C. Bauer and S. Grimme, Chem. Sci., 2017, 8, 4879.
     DOI: 10.1039/c7sc00601b
   * J. Koopman and S. Grimme, ACS Omega 2019, 4, 12, 15120-15133.
     DOI: 10.1021/acsomega.9b02011
   
   for metadynamics refer to:
   * S. Grimme, J. Chem. Theory Comput., 2019, 155, 2847-2862
     DOI: 10.1021/acs.jctc.9b00143
   
   for SPH calculations refer to:
   * S. Spicher and S. Grimme, J. Chem. Theory Comput., 2021, 17, 1701-1714
     DOI: 10.1021/acs.jctc.0c01306
   
   with help from (in alphabetical order)
   P. Atkinson, C. Bannwarth, F. Bohle, G. Brandenburg, E. Caldeweyher
   M. Checinski, S. Dohm, S. Ehlert, S. Ehrlich, I. Gerasimov, C. Hölzer
   A. Katbashev, J. Koopman, C. Lavigne, S. Lehtola, F. März, M. Müller,
   F. Musil, H. Neugebauer, J. Pisarek, C. Plett, P. Pracht, F. Pultar,
   J. Seibert, P. Shushkov, S. Spicher, M. Stahn, M. Steiner, T. Strunk,
   J. Stückrath, T. Rose, and J. Unsleber
   
 * started run on 2022/07/29 at 17:42:45.718     

           -------------------------------------------------
          |                Calculation Setup                |
           -------------------------------------------------

          program call               : xtb Fe_Py_C8_4.xyz --gfn 1 --opt -T 48
          hostname                   : cx3-14-19.cx3.hpc.ic.ac.uk
          coordinate file            : Fe_Py_C8_4.xyz
          omp threads                :                     1

   ID    Z sym.   atoms
    1   26 Fe     1, 55, 133, 186
    2    6 C      2-6, 8-11, 13-17, 19-24, 26-29, 31-36, 56-60, 62-65, 67-71,
                  73-78, 80-83, 85-90, 109-132, 134-138, 140-143, 145-149,
                  151-156, 158-161, 163-168, 187-191, 193-196, 198-202,
                  204-209, 211-214, 216-221
    3    7 N      7, 12, 18, 25, 30, 37, 61, 66, 72, 79, 84, 91, 139, 144,
                  150, 157, 162, 169, 192, 197, 203, 210, 215, 222
    4    1 H      38-54, 92-108, 170-185, 223-238

molecular fragmentation (1/2 indicates fragments):
111111111111111111111111111111111111111111111111111111222222222222222222
222222222222222222222222222222222222222222222222222222222222222222222222
222222222222222222222222222222222222222222222222222222222222222222222222
2222222222222222222222
# atoms in fragment 1/2:    54   184
 fragment masses (1/2) :      517.34     1838.27
CMA distance (Bohr)    :  70.304
constraining FC (au)   :  0.0500
########################################################################
[WARNING] Please study the warnings concerning your input carefully
-1- prog_main_parseArguments: Unknown option '-T' provided
########################################################################

           -------------------------------------------------
          |                 G F N 1 - x T B                 |
           -------------------------------------------------

        Reference                      10.1021/acs.jctc.7b00118
      * Hamiltonian:
        H0-scaling (s, p, d)           1.850000    2.250000    2.000000
        zeta-weighting                 0.000000
      * Dispersion:
        s8                             2.400000
        a1                             0.630000
        a2                             5.000000
        s9                             0.000000
      * Repulsion:
        kExp                           1.500000
        rExp                           1.000000
      * Coulomb:
        alpha                          2.000000
        third order                    atomic
        anisotropic                    false
      * Halogen bond correction:
        rad-scale                      1.300000
        damping                        0.440000


          ...................................................
          :                      SETUP                      :
          :.................................................:
          :  # basis functions                 844          :
          :  # atomic orbitals                 840          :
          :  # shells                          480          :
          :  # electrons                       794          :
          :  # halogen bonds                     0          :
          :  max. iterations                   250          :
          :  Hamiltonian                  GFN1-xTB          :
          :  restarted?                      false          :
          :  GBSA solvation                  false          :
          :  PC potential                    false          :
          :  electronic temp.          300.0000000     K    :
          :  accuracy                    1.0000000          :
          :  -> integral cutoff          0.2500000E+02      :
          :  -> integral neglect         0.1000000E-07      :
          :  -> SCF convergence          0.1000000E-05 Eh   :
          :  -> wf. convergence          0.2000000E-04 e    :
          :  Broyden damping             0.4000000          :
          ...................................................

 iter      E             dE          RMSdq      gap      omega  full diag
   1   -389.3123225 -0.389312E+03  0.123E+01    0.03       0.0  T
   2   -133.2490236  0.256063E+03  0.146E+01    0.06       1.0  T
   3    367.2306037  0.500480E+03  0.137E+01    0.03       1.0  T
   4   3022.9313584  0.265570E+04  0.214E+01    0.09       1.0  T
   5    963.1029478 -0.205983E+04  0.153E+01    0.03       1.0  T
   6   1888.7017175  0.925599E+03  0.180E+01    0.05       1.0  T
   7    251.9579233 -0.163674E+04  0.125E+01    0.04       1.0  T
   8    146.8856873 -0.105072E+03  0.116E+01    0.07       1.0  T
   9   -248.3332952 -0.395219E+03  0.914E+00    0.12       1.0  T
  10   -184.4229895  0.639103E+02  0.834E+00    0.05       1.0  T
  11   -138.2147949  0.462082E+02  0.895E+00    0.02       1.0  T
  12   -295.5733010 -0.157359E+03  0.719E+00    0.01       1.0  T
  13   -262.7578512  0.328154E+02  0.712E+00    0.01       1.0  T
  14   -260.3561423  0.240171E+01  0.669E+00    0.02       1.0  T
  15   -313.0829956 -0.527269E+02  0.617E+00    0.06       1.0  T
  16   -320.0613995 -0.697840E+01  0.607E+00    0.01       1.0  T
  17   -325.6534567 -0.559206E+01  0.602E+00    0.02       1.0  T
  18   -348.5736163 -0.229202E+02  0.555E+00    0.02       1.0  T
  19   -362.3159353 -0.137423E+02  0.487E+00    0.03       1.0  T
  20   -380.9710020 -0.186551E+02  0.491E+00    0.04       1.0  T
  21   -406.0363056 -0.250653E+02  0.419E+00    0.04       1.0  T
  22   -416.6184114 -0.105821E+02  0.386E+00    0.05       1.0  T
  23   -411.7653639  0.485305E+01  0.409E+00    0.06       1.0  T
  24   -411.6736571  0.917067E-01  0.402E+00    0.03       1.0  T
  25   -412.0840110 -0.410354E+00  0.397E+00    0.17       1.0  T
  26   -412.3578046 -0.273794E+00  0.466E+00    0.12       1.0  T
  27   -422.2484870 -0.989068E+01  0.347E+00    0.07       1.0  T
  28   -402.2911901  0.199573E+02  0.515E+00    0.01       1.0  T
  29   -403.5925888 -0.130140E+01  0.507E+00    0.03       1.0  T
  30   -403.6350668 -0.424780E-01  0.487E+00    0.04       1.0  T
  31   -400.5239227  0.311114E+01  0.484E+00    0.21       1.0  T
  32   -407.0294323 -0.650551E+01  0.433E+00    0.02       1.0  T
  33   -412.4634582 -0.543403E+01  0.397E+00    0.01       1.0  T
  34   -414.3443589 -0.188090E+01  0.369E+00    0.01       1.0  T
  35   -409.0306774  0.531368E+01  0.447E+00    0.02       1.0  T
  36   -409.5116815 -0.481004E+00  0.445E+00    0.02       1.0  T
  37   -409.5241289 -0.124475E-01  0.442E+00    0.04       1.0  T
  38   -409.6470064 -0.122877E+00  0.441E+00    0.02       1.0  T
  39   -409.8780459 -0.231039E+00  0.442E+00    0.14       1.0  T
  40   -410.7369705 -0.858925E+00  0.433E+00    0.06       1.0  T
  41   -419.8474271 -0.911046E+01  0.350E+00    0.04       1.0  T
  42   -427.0453531 -0.719793E+01  0.263E+00    0.00       1.0  T
  43   -428.0743896 -0.102904E+01  0.247E+00    0.04       1.0  T
  44   -427.2297923  0.844597E+00  0.255E+00    0.03       1.0  T
  45   -428.0547606 -0.824968E+00  0.242E+00    0.05       1.0  T
  46   -427.7981238  0.256637E+00  0.243E+00    0.04       1.0  T
  47   -431.2284185 -0.343029E+01  0.189E+00    0.00       1.0  T
  48   -431.9792702 -0.750852E+00  0.174E+00    0.01       1.0  T
  49   -423.2191166  0.876015E+01  0.300E+00    0.05       1.0  T
  50   -423.8486160 -0.629499E+00  0.308E+00    0.02       1.0  T
  51   -421.6265308  0.222209E+01  0.336E+00    0.02       1.0  T
  52   -415.6484472  0.597808E+01  0.398E+00    0.04       1.0  T
  53   -422.4311826 -0.678274E+01  0.326E+00    0.00       1.0  T
  54   -428.1581362 -0.572695E+01  0.241E+00    0.03       1.0  T
  55   -430.8401301 -0.268199E+01  0.185E+00    0.07       1.0  T
  56   -432.5902719 -0.175014E+01  0.129E+00    0.01       1.0  T
  57   -424.7081255  0.788215E+01  0.288E+00    0.02       1.0  T
  58   -418.2812727  0.642685E+01  0.363E+00    0.04       1.0  T
  59   -412.7949384  0.548633E+01  0.407E+00    0.02       1.0  T
  60   -412.9071787 -0.112240E+00  0.405E+00    0.03       1.0  T
  61   -419.8702351 -0.696306E+01  0.340E+00    0.01       1.0  T
  62   -432.2298890 -0.123597E+02  0.140E+00    0.01       1.0  T
  63   -432.3103210 -0.804320E-01  0.132E+00    0.05       1.0  T
  64   -428.7168432  0.359348E+01  0.214E+00    0.07       1.0  T
  65   -430.3409997 -0.162416E+01  0.182E+00    0.06       1.0  T
  66   -432.9959409 -0.265494E+01  0.113E+00    0.02       1.0  T
  67   -431.8747720  0.112117E+01  0.140E+00    0.01       1.0  T
  68   -433.2486893 -0.137392E+01  0.103E+00    0.01       1.0  T
  69   -433.6961963 -0.447507E+00  0.774E-01    0.03       1.0  T
  70   -433.7818540 -0.856577E-01  0.742E-01    0.04       1.0  T
  71   -433.8455377 -0.636837E-01  0.718E-01    0.02       1.0  T
  72   -432.6471527  0.119839E+01  0.127E+00    0.00       1.0  T
  73   -433.6918650 -0.104471E+01  0.802E-01    0.02       1.0  T
  74   -433.0890764  0.602789E+00  0.104E+00    0.00       1.0  T
  75   -433.7058845 -0.616808E+00  0.733E-01    0.01       1.0  T
  76   -433.4598773  0.246007E+00  0.885E-01    0.01       1.0  T
  77   -433.9959869 -0.536110E+00  0.585E-01    0.01       1.0  T
  78   -432.6877123  0.130827E+01  0.118E+00    0.00       1.0  T
  79   -432.7557783 -0.680659E-01  0.116E+00    0.01       1.0  T
  80   -433.1133971 -0.357619E+00  0.103E+00    0.02       1.0  T
  81   -433.3354849 -0.222088E+00  0.943E-01    0.01       1.0  T
  82   -433.5387150 -0.203230E+00  0.850E-01    0.01       1.0  T
  83   -433.6166630 -0.779480E-01  0.801E-01    0.01       1.0  T
  84   -433.9185371 -0.301874E+00  0.614E-01    0.02       1.0  T
  85   -434.0156453 -0.971082E-01  0.541E-01    0.01       1.0  T
  86   -434.0860505 -0.704052E-01  0.478E-01    0.01       1.0  T
  87   -434.1641279 -0.780774E-01  0.416E-01    0.01       1.0  T
  88   -434.2859616 -0.121834E+00  0.289E-01    0.01       1.0  T
  89   -434.3411040 -0.551424E-01  0.196E-01    0.01       1.0  T
  90   -434.3603323 -0.192284E-01  0.150E-01    0.01       1.0  T
  91   -434.3823686 -0.220363E-01  0.744E-02    0.01       1.0  T
  92   -434.3838911 -0.152243E-02  0.649E-02    0.01       1.0  T
  93   -434.3815444  0.234667E-02  0.766E-02    0.01       1.0  T
  94   -434.3805497  0.994730E-03  0.788E-02    0.01       1.0  T
  95   -434.3820195 -0.146980E-02  0.688E-02    0.01       1.0  T
  96   -434.3834365 -0.141707E-02  0.580E-02    0.01       1.0  T
  97   -434.3811912  0.224538E-02  0.689E-02    0.01       1.0  T
  98   -434.3849016 -0.371044E-02  0.431E-02    0.01       1.0  T
  99   -434.3855244 -0.622826E-03  0.368E-02    0.01       1.0  T
 100   -434.3860265 -0.502125E-03  0.307E-02    0.01       1.0  T
 101   -434.3860848 -0.582967E-04  0.283E-02    0.01       1.0  T
 102   -434.3861135 -0.286941E-04  0.256E-02    0.01       1.0  T
 103   -434.3856771  0.436405E-03  0.309E-02    0.01       1.0  T
 104   -434.3850083  0.668861E-03  0.380E-02    0.01       1.0  T
 105   -434.3852677 -0.259410E-03  0.351E-02    0.01       1.0  T
 106   -434.3852826 -0.149030E-04  0.344E-02    0.01       1.0  T
 107   -434.3856556 -0.373038E-03  0.303E-02    0.01       1.0  T
 108   -434.3858775 -0.221832E-03  0.273E-02    0.01       1.0  T
 109   -434.3862552 -0.377756E-03  0.211E-02    0.01       1.0  T
 110   -434.3864911 -0.235919E-03  0.153E-02    0.01       1.0  T
 111   -434.3865272 -0.360399E-04  0.139E-02    0.01       1.0  T
 112   -434.3866002 -0.729949E-04  0.115E-02    0.01       1.0  T
 113   -434.3866618 -0.616702E-04  0.906E-03    0.01       1.0  T
 114   -434.3867106 -0.487624E-04  0.660E-03    0.01       1.0  T
 115   -434.3867237 -0.130775E-04  0.578E-03    0.01       1.1  T
 116   -434.3867365 -0.128020E-04  0.471E-03    0.01       1.4  T
 117   -434.3867446 -0.808565E-05  0.390E-03    0.01       1.7  T
 118   -434.3867432  0.135778E-05  0.394E-03    0.01       1.6  T
 119   -434.3867459 -0.265005E-05  0.366E-03    0.01       1.8  T
 120   -434.3867440  0.187824E-05  0.384E-03    0.01       1.7  T
 121   -434.3867523 -0.834425E-05  0.282E-03    0.01       2.3  T
 122   -434.3867564 -0.409584E-05  0.214E-03    0.01       3.0  T
 123   -434.3867604 -0.402115E-05  0.114E-03    0.01       5.7  T
 124   -434.3867614 -0.992537E-06  0.678E-04    0.01       9.6  T
 125   -434.3867616 -0.182657E-06  0.567E-04    0.01      11.4  T
 126   -434.3867613  0.286744E-06  0.733E-04    0.01       8.8  T
 127   -434.3867618 -0.463361E-06  0.418E-04    0.01      15.5  T
 128   -434.3867620 -0.179324E-06  0.185E-04    0.01      34.9  T
 129   -434.3867620 -0.127654E-07  0.159E-04    0.01      40.7  T

   *** convergence criteria satisfied after 129 iterations ***

         #    Occupation            Energy/Eh            Energy/eV
      -------------------------------------------------------------
         1        2.0000           -0.7831134             -21.3096
       ...           ...                  ...                  ...
       391        1.9932           -0.3852711             -10.4838
       392        1.9340           -0.3830802             -10.4241
       393        1.8409           -0.3821978             -10.4001
       394        1.7706           -0.3818128             -10.3897
       395        1.6407           -0.3813145             -10.3761
       396        1.3077           -0.3804757             -10.3533
       397        1.0571           -0.3799801             -10.3398 (HOMO)
       398        0.9137           -0.3797070             -10.3324 (LUMO)
       399        0.7939           -0.3794741             -10.3260
       400        0.6778           -0.3792367             -10.3196
       401        0.0642           -0.3766358             -10.2488
       402        0.0095           -0.3747887             -10.1985
       ...           ...                  ...                  ...
       840                          2.3390797              63.6496
      -------------------------------------------------------------
                  HL-Gap            0.0002731 Eh            0.0074 eV
             Fermi-level           -0.3798714 Eh          -10.3368 eV

 SCC (total)                   0 d,  0 h,  0 min, 45.707 sec
 SCC setup                      ...        0 min,  0.025 sec (  0.054%)
 Dispersion                     ...        0 min,  0.015 sec (  0.033%)
 classical contributions        ...        0 min,  0.004 sec (  0.008%)
 integral evaluation            ...        0 min,  0.468 sec (  1.024%)
 iterations                     ...        0 min, 44.177 sec ( 96.652%)
 molecular gradient             ...        0 min,  0.943 sec (  2.063%)
 printout                       ...        0 min,  0.075 sec (  0.165%)

         :::::::::::::::::::::::::::::::::::::::::::::::::::::
         ::                     SUMMARY                     ::
         :::::::::::::::::::::::::::::::::::::::::::::::::::::
         :: total energy            -426.612125893607 Eh    ::
         :: gradient norm              1.612318248832 Eh/a0 ::
         :: HOMO-LUMO gap              0.007430737414 eV    ::
         ::.................................................::
         :: SCC energy              -434.386761984235 Eh    ::
         :: -> electrostatic           0.342205108509 Eh    ::
         :: repulsion energy           7.987809037140 Eh    ::
         :: dispersion energy         -0.213172946513 Eh    ::
         :: halogen bond corr.         0.000000000000 Eh    ::
         :: add. restraining           0.000000000000 Eh    ::
         :: total charge               0.000000000441 e     ::
         :::::::::::::::::::::::::::::::::::::::::::::::::::::

      ----------------------------------------------------------- 
     |                   =====================                   |
     |                        A N C O P T                        |
     |                   =====================                   |
     |               Approximate Normal Coordinate               |
     |                Rational Function Optimizer                |
      ----------------------------------------------------------- 

          ...................................................
          :                      SETUP                      :
          :.................................................:
          :   optimization level            normal          :
          :   max. optcycles                   714          :
          :   ANC micro-cycles                  20          :
          :   degrees of freedom               708          :
          :.................................................:
          :   RF solver                   davidson          :
          :   write xtbopt.log                true          :
          :   linear?                        false          :
          :   energy convergence         0.5000000E-05 Eh   :
          :   grad. convergence          0.1000000E-02 Eh/α :
          :   maximium RF displ.         1.0000000          :
          :   Hlow (freq-cutoff)         0.1000000E-01      :
          :   Hmax (freq-cutoff)         5.0000000          :
          :   S6 in model hess.         20.0000000          :
          ...................................................

generating ANC from model Hessian ...
Using Lindh-Hessian (1995)
 Shifting diagonal of input Hessian by    1.0106993240613224E-002
 Lowest  eigenvalues of input Hessian
    0.010000    0.010022    0.010085    0.010087    0.010088    0.010089
    0.010091    0.010094    0.010096    0.010097    0.010101    0.010105
    0.000000    0.000000    0.000000    0.000000    0.000000    0.000000
 Highest eigenvalues
    3.036950    3.079554    3.120334    3.247398    3.437891    3.438203


........................................................................
.............................. CYCLE    1 ..............................
........................................................................
   1   -434.3867620 -0.434387E+03  0.157E-04    0.01       0.0  T
   2   -434.3853771  0.138492E-02  0.331E-02    0.01       1.0  T
   3   -434.3867590 -0.138193E-02  0.164E-03    0.01       4.0  T
   4   -434.3866333  0.125651E-03  0.980E-03    0.01       1.0  T
   5   -434.3865975  0.357969E-04  0.116E-02    0.01       1.0  T
   6   -434.3866205 -0.229814E-04  0.994E-03    0.01       1.0  T
   7   -434.3867151 -0.946256E-04  0.614E-03    0.01       1.1  T
   8   -434.3867192 -0.402725E-05  0.548E-03    0.01       1.2  T
   9   -434.3867601 -0.409008E-04  0.126E-03    0.01       5.2  T
  10   -434.3867510  0.910415E-05  0.287E-03    0.01       2.3  T
  11   -434.3867586 -0.759685E-05  0.163E-03    0.01       4.0  T
  12   -434.3867617 -0.309887E-05  0.518E-04    0.01      12.5  T
  13   -434.3867620 -0.333134E-06  0.102E-04    0.01      63.7  T
  14   -434.3867619  0.610423E-07  0.236E-04    0.01      27.5  T
  15   -434.3867620 -0.520272E-07  0.130E-04    0.01      49.9  T
     SCC iter.                  ...        0 min,  5.189 sec
     gradient                   ...        0 min,  0.946 sec
 * total energy  :  -426.6121259 Eh     change       -0.9223186E-08 Eh
   gradient norm :     1.6123177 Eh/α   predicted     0.0000000E+00 (-100.00%)
   displ. norm   :     0.5140654 α      lambda       -0.7751890E+00
   maximum displ.:     0.2306267 α      in ANC's #703, #705, #704, ...

........................................................................
.............................. CYCLE    2 ..............................
........................................................................
   1   -434.2394026 -0.434239E+03  0.379E-01    0.00       0.0  T
   2   -424.0680543  0.101713E+02  0.299E+00    0.00       1.0  T
   3   -398.8856504  0.251824E+02  0.509E+00    0.08       1.0  T
   4   -410.7775633 -0.118919E+02  0.414E+00    0.03       1.0  T
   5   -408.3787830  0.239878E+01  0.428E+00    0.03       1.0  T
   6   -430.5803164 -0.222015E+02  0.166E+00    0.05       1.0  T
   7   -406.4903922  0.240899E+02  0.440E+00    0.18       1.0  T
   8   -410.0699586 -0.357957E+01  0.407E+00    0.05       1.0  T
   9   -422.1924373 -0.121225E+02  0.301E+00    0.03       1.0  T
  10   -418.7448544  0.344758E+01  0.333E+00    0.01       1.0  T
  11   -430.8069635 -0.120621E+02  0.168E+00    0.02       1.0  T
  12   -426.8662778  0.394069E+01  0.233E+00    0.02       1.0  T
  13   -422.5266937  0.433958E+01  0.298E+00    0.03       1.0  T
  14   -416.4708331  0.605586E+01  0.360E+00    0.05       1.0  T
  15   -418.1550968 -0.168426E+01  0.343E+00    0.03       1.0  T
  16   -426.1659940 -0.801090E+01  0.249E+00    0.02       1.0  T
  17   -431.6884674 -0.552247E+01  0.147E+00    0.04       1.0  T
  18   -432.0873251 -0.398858E+00  0.135E+00    0.02       1.0  T
  19   -430.7137022  0.137362E+01  0.171E+00    0.03       1.0  T
  20   -431.8356755 -0.112197E+01  0.143E+00    0.01       1.0  T
  21   -432.8556048 -0.101993E+01  0.111E+00    0.02       1.0  T
  22   -432.1662978  0.689307E+00  0.134E+00    0.02       1.0  T
  23   -433.4871718 -0.132087E+01  0.838E-01    0.01       1.0  T
  24   -433.7106318 -0.223460E+00  0.696E-01    0.00       1.0  T
  25   -433.1339359  0.576696E+00  0.986E-01    0.00       1.0  T
  26   -434.2016660 -0.106773E+01  0.331E-01    0.02       1.0  T
  27   -433.8790928  0.322573E+00  0.594E-01    0.01       1.0  T
  28   -434.1193039 -0.240211E+00  0.407E-01    0.01       1.0  T
  29   -433.9469520  0.172352E+00  0.562E-01    0.01       1.0  T
  30   -434.2096332 -0.262681E+00  0.314E-01    0.02       1.0  T
  31   -434.3216075 -0.111974E+00  0.106E-01    0.00       1.0  T
  32   -434.1976716  0.123936E+00  0.332E-01    0.01       1.0  T
  33   -434.3280053 -0.130334E+00  0.824E-02    0.00       1.0  T
  34   -434.3203958  0.760943E-02  0.118E-01    0.00       1.0  T
  35   -434.3352286 -0.148328E-01  0.441E-02    0.00       1.0  T
  36   -434.3317862  0.344241E-02  0.670E-02    0.00       1.0  T
  37   -434.3351570 -0.337079E-02  0.446E-02    0.00       1.0  T
  38   -434.3341293  0.102767E-02  0.516E-02    0.00       1.0  T
  39   -434.3375320 -0.340272E-02  0.887E-03    0.00       1.0  T
  40   -434.3368759  0.656154E-03  0.239E-02    0.00       1.0  T
  41   -434.3372271 -0.351267E-03  0.178E-02    0.00       1.0  T
  42   -434.3372020  0.251488E-04  0.185E-02    0.00       1.0  T
  43   -434.3374018 -0.199787E-03  0.138E-02    0.00       1.0  T
  44   -434.3374930 -0.911896E-04  0.110E-02    0.00       1.0  T
  45   -434.3376039 -0.110945E-03  0.578E-03    0.00       1.1  T
  46   -434.3376224 -0.185440E-04  0.425E-03    0.00       1.5  T
  47   -434.3376432 -0.207234E-04  0.110E-03    0.00       5.9  T
  48   -434.3376414  0.179586E-05  0.162E-03    0.00       4.0  T
  49   -434.3376371  0.423173E-05  0.242E-03    0.00       2.7  T
  50   -434.3376430 -0.589611E-05  0.116E-03    0.00       5.6  T
  51   -434.3376437 -0.675195E-06  0.912E-04    0.00       7.1  T
  52   -434.3376448 -0.105674E-05  0.702E-05    0.00      92.4  T
  53   -434.3376448  0.761554E-08  0.107E-04    0.00      60.5  T
  54   -434.3376448 -0.132796E-07  0.307E-05    0.00     211.0  T
     SCC iter.                  ...        0 min, 18.501 sec
     gradient                   ...        0 min,  0.944 sec
 * total energy  :  -427.1344135 Eh     change       -0.5222876E+00 Eh
   gradient norm :     0.6550274 Eh/α   predicted    -0.4900255E+00 (  -6.18%)
   displ. norm   :     0.5148526 α      lambda       -0.2808379E+00
   maximum displ.:     0.1238019 α      in ANC's #703, #705, #461, ...

........................................................................
.............................. CYCLE    3 ..............................
........................................................................
   1   -434.3437065 -0.434344E+03  0.432E-01    0.00       0.0  T
   2   -419.1670904  0.151766E+02  0.357E+00    0.01       1.0  T
   3   -409.4048412  0.976225E+01  0.432E+00    0.08       1.0  T
   4   -409.2505007  0.154341E+00  0.419E+00    0.06       1.0  T
   5   -409.9867841 -0.736283E+00  0.418E+00    0.06       1.0  T
   6   -426.8348445 -0.168481E+02  0.244E+00    0.04       1.0  T
   7   -424.7178129  0.211703E+01  0.272E+00    0.01       1.0  T
   8   -420.3564140  0.436140E+01  0.319E+00    0.04       1.0  T
   9   -427.7645020 -0.740809E+01  0.224E+00    0.06       1.0  T
  10   -431.9249750 -0.416047E+01  0.142E+00    0.04       1.0  T
  11   -432.5500551 -0.625080E+00  0.122E+00    0.01       1.0  T
  12   -431.2845632  0.126549E+01  0.158E+00    0.05       1.0  T
  13   -431.7239199 -0.439357E+00  0.145E+00    0.00       1.0  T
  14   -433.4431231 -0.171920E+01  0.949E-01    0.02       1.0  T
  15   -431.8969824  0.154614E+01  0.141E+00    0.04       1.0  T
  16   -433.4187631 -0.152178E+01  0.940E-01    0.00       1.0  T
  17   -431.0881943  0.233057E+01  0.166E+00    0.04       1.0  T
  18   -434.0962060 -0.300801E+01  0.576E-01    0.01       1.0  T
  19   -432.4727235  0.162348E+01  0.129E+00    0.01       1.0  T
  20   -433.7817447 -0.130902E+01  0.770E-01    0.01       1.0  T
  21   -433.8089101 -0.271654E-01  0.751E-01    0.00       1.0  T
  22   -434.1400812 -0.331171E+00  0.524E-01    0.03       1.0  T
  23   -434.3196237 -0.179542E+00  0.404E-01    0.00       1.0  T
  24   -434.4316330 -0.112009E+00  0.252E-01    0.01       1.0  T
  25   -434.4672760 -0.356430E-01  0.174E-01    0.00       1.0  T
  26   -434.3523160  0.114960E+00  0.352E-01    0.02       1.0  T
  27   -434.3965945 -0.442784E-01  0.302E-01    0.02       1.0  T
  28   -434.3329523  0.636421E-01  0.370E-01    0.02       1.0  T
  29   -434.4848115 -0.151859E+00  0.141E-01    0.00       1.0  T
  30   -434.4822951  0.251648E-02  0.146E-01    0.01       1.0  T
  31   -434.4904332 -0.813814E-02  0.122E-01    0.01       1.0  T
  32   -434.5068468 -0.164136E-01  0.382E-02    0.00       1.0  T
  33   -434.5066344  0.212471E-03  0.426E-02    0.00       1.0  T
  34   -434.5084582 -0.182381E-02  0.172E-02    0.00       1.0  T
  35   -434.5086477 -0.189502E-03  0.109E-02    0.00       1.0  T
  36   -434.5087422 -0.945544E-04  0.781E-03    0.00       1.0  T
  37   -434.5087188  0.233958E-04  0.857E-03    0.00       1.0  T
  38   -434.5087784 -0.595377E-04  0.530E-03    0.00       1.2  T
  39   -434.5088021 -0.237337E-04  0.324E-03    0.00       2.0  T
  40   -434.5088087 -0.661905E-05  0.226E-03    0.00       2.9  T
  41   -434.5088127 -0.398857E-05  0.134E-03    0.00       4.8  T
  42   -434.5088143 -0.159660E-05  0.781E-04    0.00       8.3  T
  43   -434.5088131  0.116993E-05  0.123E-03    0.00       5.3  T
  44   -434.5088144 -0.126811E-05  0.702E-04    0.00       9.2  T
  45   -434.5088148 -0.344344E-06  0.469E-04    0.00      13.8  T
  46   -434.5088149 -0.180375E-06  0.283E-04    0.00      22.9  T
  47   -434.5088150 -0.581381E-07  0.184E-04    0.00      35.3  T
  48   -434.5088150 -0.258993E-07  0.118E-04    0.00      55.1  T
     SCC iter.                  ...        0 min, 16.398 sec
     gradient                   ...        0 min,  0.948 sec
 * total energy  :  -427.3151932 Eh     change       -0.1807797E+00 Eh
   gradient norm :     0.2392282 Eh/α   predicted    -0.1776404E+00 (  -1.74%)
   displ. norm   :     0.6029920 α      lambda       -0.9530755E-01
   maximum displ.:     0.1414134 α      in ANC's #184, #192, #186, ...

........................................................................
.............................. CYCLE    4 ..............................
........................................................................
   1   -434.4954085 -0.434495E+03  0.291E-01    0.03       0.0  T
   2   -423.0543818  0.114410E+02  0.318E+00    0.04       1.0  T
   3   -417.5016556  0.555273E+01  0.364E+00    0.02       1.0  T
   4   -426.7869056 -0.928525E+01  0.241E+00    0.02       1.0  T
   5   -425.9702592  0.816646E+00  0.257E+00    0.01       1.0  T
   6   -411.9122314  0.140580E+02  0.400E+00    0.12       1.0  T
   7   -419.7573635 -0.784513E+01  0.326E+00    0.00       1.0  T
   8   -431.1020089 -0.113446E+02  0.163E+00    0.02       1.0  T
   9   -431.2321975 -0.130189E+00  0.158E+00    0.01       1.0  T
  10   -430.4691665  0.763031E+00  0.175E+00    0.03       1.0  T
  11   -431.6606057 -0.119144E+01  0.150E+00    0.04       1.0  T
  12   -430.7793951  0.881211E+00  0.171E+00    0.02       1.0  T
  13   -430.6760165  0.103379E+00  0.174E+00    0.02       1.0  T
  14   -432.7097721 -0.203376E+01  0.123E+00    0.01       1.0  T
  15   -432.9624028 -0.252631E+00  0.111E+00    0.00       1.0  T
  16   -433.8645832 -0.902180E+00  0.760E-01    0.03       1.0  T
  17   -433.9031124 -0.385292E-01  0.740E-01    0.01       1.0  T
  18   -433.9502421 -0.471297E-01  0.726E-01    0.03       1.0  T
  19   -434.0008326 -0.505905E-01  0.676E-01    0.04       1.0  T
  20   -432.4469855  0.155385E+01  0.129E+00    0.02       1.0  T
  21   -433.5017223 -0.105474E+01  0.919E-01    0.05       1.0  T
  22   -433.6963609 -0.194639E+00  0.824E-01    0.00       1.0  T
  23   -434.1133347 -0.416974E+00  0.604E-01    0.00       1.0  T
  24   -434.2458627 -0.132528E+00  0.517E-01    0.00       1.0  T
  25   -434.5555314 -0.309669E+00  0.154E-01    0.00       1.0  T
  26   -434.5830633 -0.275320E-01  0.510E-02    0.00       1.0  T
  27   -434.5792783  0.378506E-02  0.738E-02    0.00       1.0  T
  28   -434.5794674 -0.189144E-03  0.755E-02    0.00       1.0  T
  29   -434.5729489  0.651856E-02  0.104E-01    0.00       1.0  T
  30   -434.5724551  0.493783E-03  0.106E-01    0.00       1.0  T
  31   -434.5790831 -0.662798E-02  0.762E-02    0.00       1.0  T
  32   -434.5841302 -0.504717E-02  0.423E-02    0.00       1.0  T
  33   -434.5844750 -0.344776E-03  0.388E-02    0.00       1.0  T
  34   -434.5862006 -0.172556E-02  0.111E-02    0.00       1.0  T
  35   -434.5860346  0.165926E-03  0.155E-02    0.00       1.0  T
  36   -434.5862618 -0.227115E-03  0.797E-03    0.00       1.0  T
  37   -434.5862241  0.376612E-04  0.970E-03    0.00       1.0  T
  38   -434.5862693 -0.452577E-04  0.761E-03    0.00       1.0  T
  39   -434.5862927 -0.233126E-04  0.634E-03    0.00       1.0  T
  40   -434.5863254 -0.327254E-04  0.381E-03    0.00       1.7  T
  41   -434.5863359 -0.105089E-04  0.249E-03    0.00       2.6  T
  42   -434.5863387 -0.277238E-05  0.201E-03    0.00       3.2  T
  43   -434.5863420 -0.333826E-05  0.113E-03    0.00       5.8  T
  44   -434.5863428 -0.786361E-06  0.789E-04    0.00       8.2  T
  45   -434.5863431 -0.270321E-06  0.609E-04    0.00      10.6  T
  46   -434.5863434 -0.328113E-06  0.300E-04    0.00      21.6  T
  47   -434.5863434 -0.585175E-07  0.205E-04    0.00      31.7  T
  48   -434.5863435 -0.336712E-07  0.125E-04    0.00      51.9  T
  49   -434.5863435 -0.892828E-08  0.913E-05    0.00      71.0  T
     SCC iter.                  ...        0 min, 16.741 sec
     gradient                   ...        0 min,  0.952 sec
 * total energy  :  -427.3840123 Eh     change       -0.6881917E-01 Eh
   gradient norm :     0.1251094 Eh/α   predicted    -0.6498084E-01 (  -5.58%)
   displ. norm   :     0.6785559 α      lambda       -0.5106806E-01
   maximum displ.:     0.1631673 α      in ANC's #60, #184, #124, ...

........................................................................
.............................. CYCLE    5 ..............................
........................................................................
   1   -434.5502171 -0.434550E+03  0.245E-01    0.05       0.0  T
   2   -425.2005183  0.934970E+01  0.291E+00    0.03       1.0  T
   3   -414.8003809  0.104001E+02  0.388E+00    0.11       1.0  T
   4   -425.3307520 -0.105304E+02  0.266E+00    0.01       1.0  T
   5   -429.3766314 -0.404588E+01  0.200E+00    0.05       1.0  T
   6   -409.8051529  0.195715E+02  0.424E+00    0.21       1.0  T
   7   -424.1994337 -0.143943E+02  0.276E+00    0.03       1.0  T
   8   -434.0697150 -0.987028E+01  0.668E-01    0.06       1.0  T
   9   -431.6878924  0.238182E+01  0.151E+00    0.00       1.0  T
  10   -432.8899183 -0.120203E+01  0.114E+00    0.04       1.0  T
  11   -433.7513191 -0.861401E+00  0.832E-01    0.01       1.0  T
  12   -434.1735814 -0.422262E+00  0.611E-01    0.04       1.0  T
  13   -432.5531617  0.162042E+01  0.125E+00    0.00       1.0  T
  14   -433.7690576 -0.121590E+01  0.812E-01    0.04       1.0  T
  15   -432.6034357  0.116562E+01  0.124E+00    0.00       1.0  T
  16   -433.8973386 -0.129390E+01  0.750E-01    0.01       1.0  T
  17   -434.2468905 -0.349552E+00  0.531E-01    0.03       1.0  T
  18   -433.8416746  0.405216E+00  0.788E-01    0.05       1.0  T
  19   -434.4626091 -0.620934E+00  0.338E-01    0.02       1.0  T
  20   -434.4188723  0.437368E-01  0.390E-01    0.00       1.0  T
  21   -434.3577355  0.611368E-01  0.449E-01    0.01       1.0  T
  22   -434.4840828 -0.126347E+00  0.317E-01    0.00       1.0  T
  23   -434.5306314 -0.465486E-01  0.255E-01    0.00       1.0  T
  24   -434.5926269 -0.619955E-01  0.130E-01    0.01       1.0  T
  25   -434.5945091 -0.188224E-02  0.125E-01    0.01       1.0  T
  26   -434.5997360 -0.522691E-02  0.107E-01    0.01       1.0  T
  27   -434.5982855  0.145057E-02  0.110E-01    0.01       1.0  T
  28   -434.6098402 -0.115548E-01  0.538E-02    0.01       1.0  T
  29   -434.6103917 -0.551444E-03  0.492E-02    0.01       1.0  T
  30   -434.6122949 -0.190324E-02  0.301E-02    0.01       1.0  T
  31   -434.6127781 -0.483205E-03  0.228E-02    0.01       1.0  T
  32   -434.6132909 -0.512797E-03  0.932E-03    0.01       1.0  T
  33   -434.6133618 -0.709513E-04  0.611E-03    0.01       1.1  T
  34   -434.6133608  0.105172E-05  0.553E-03    0.01       1.2  T
  35   -434.6133729 -0.120801E-04  0.476E-03    0.01       1.4  T
  36   -434.6133814 -0.853597E-05  0.412E-03    0.01       1.6  T
  37   -434.6133857 -0.424826E-05  0.383E-03    0.01       1.7  T
  38   -434.6133848  0.816663E-06  0.390E-03    0.01       1.7  T
  39   -434.6133865 -0.168106E-05  0.374E-03    0.01       1.7  T
  40   -434.6133969 -0.103957E-04  0.241E-03    0.01       2.7  T
  41   -434.6134014 -0.446673E-05  0.150E-03    0.01       4.3  T
  42   -434.6134033 -0.187086E-05  0.861E-04    0.01       7.5  T
  43   -434.6134039 -0.632723E-06  0.467E-04    0.01      13.9  T
  44   -434.6134041 -0.215143E-06  0.169E-04    0.01      38.3  T
  45   -434.6134041 -0.255442E-07  0.775E-05    0.01      83.7  T
     SCC iter.                  ...        0 min, 14.142 sec
     gradient                   ...        0 min,  0.689 sec
 * total energy  :  -427.4209476 Eh     change       -0.3693527E-01 Eh
   gradient norm :     0.0769746 Eh/α   predicted    -0.3729102E-01 (   0.96%)
   displ. norm   :     0.7477747 α      lambda       -0.3129681E-01
   maximum displ.:     0.2636425 α      in ANC's #60, #124, #58, ...

........................................................................
.............................. CYCLE    6 ..............................
........................................................................
   1   -434.5570335 -0.434557E+03  0.211E-01    0.06       0.0  T
   2   -426.5827881  0.797425E+01  0.274E+00    0.03       1.0  T
   3   -422.5666159  0.401617E+01  0.303E+00    0.04       1.0  T
   4   -431.2387701 -0.867215E+01  0.162E+00    0.01       1.0  T
   5   -410.5832950  0.206555E+02  0.417E+00    0.17       1.0  T
   6   -430.8220189 -0.202387E+02  0.174E+00    0.00       1.0  T
   7   -431.4330590 -0.611040E+00  0.158E+00    0.03       1.0  T
   8   -423.9481021  0.748496E+01  0.279E+00    0.02       1.0  T
   9   -423.5208615  0.427241E+00  0.286E+00    0.04       1.0  T
  10   -417.6098012  0.591106E+01  0.349E+00    0.04       1.0  T
  11   -417.8130695 -0.203268E+00  0.347E+00    0.03       1.0  T
  12   -417.6766802  0.136389E+00  0.348E+00    0.04       1.0  T
  13   -418.6236672 -0.946987E+00  0.338E+00    0.03       1.0  T
  14   -429.4693531 -0.108457E+02  0.202E+00    0.04       1.0  T
  15   -431.9427087 -0.247336E+01  0.146E+00    0.02       1.0  T
  16   -428.6870556  0.325565E+01  0.216E+00    0.02       1.0  T
  17   -428.0417873  0.645268E+00  0.227E+00    0.00       1.0  T
  18   -427.8102134  0.231574E+00  0.231E+00    0.01       1.0  T
  19   -429.1252286 -0.131502E+01  0.209E+00    0.00       1.0  T
  20   -429.3959323 -0.270704E+00  0.203E+00    0.02       1.0  T
  21   -429.3811329  0.147994E-01  0.204E+00    0.02       1.0  T
  22   -430.4995692 -0.111844E+01  0.181E+00    0.00       1.0  T
  23   -430.4929093  0.665987E-02  0.179E+00    0.01       1.0  T
  24   -430.3122937  0.180616E+00  0.181E+00    0.00       1.0  T
  25   -430.8473109 -0.535017E+00  0.170E+00    0.01       1.0  T
  26   -433.8358904 -0.298858E+01  0.756E-01    0.02       1.0  T
  27   -434.1671807 -0.331290E+00  0.581E-01    0.01       1.0  T
  28   -434.5636626 -0.396482E+00  0.166E-01    0.02       1.0  T
  29   -434.4949292  0.687334E-01  0.287E-01    0.03       1.0  T
  30   -434.5645914 -0.696622E-01  0.162E-01    0.01       1.0  T
  31   -434.5751953 -0.106038E-01  0.140E-01    0.03       1.0  T
  32   -434.5905939 -0.153987E-01  0.888E-02    0.02       1.0  T
  33   -434.5998253 -0.923138E-02  0.330E-02    0.03       1.0  T
  34   -434.5997119  0.113398E-03  0.350E-02    0.02       1.0  T
  35   -434.6006530 -0.941133E-03  0.207E-02    0.02       1.0  T
  36   -434.6003301  0.322982E-03  0.262E-02    0.03       1.0  T
  37   -434.6008199 -0.489854E-03  0.162E-02    0.03       1.0  T
  38   -434.6009390 -0.119106E-03  0.127E-02    0.03       1.0  T
  39   -434.6009767 -0.376521E-04  0.113E-02    0.03       1.0  T
  40   -434.6010373 -0.606134E-04  0.879E-03    0.03       1.0  T
  41   -434.6010501 -0.128289E-04  0.810E-03    0.03       1.0  T
  42   -434.6010641 -0.139442E-04  0.732E-03    0.03       1.0  T
  43   -434.6010666 -0.251343E-05  0.712E-03    0.03       1.0  T
  44   -434.6010525  0.140286E-04  0.779E-03    0.03       1.0  T
  45   -434.6010905 -0.379743E-04  0.544E-03    0.03       1.2  T
  46   -434.6010869  0.363027E-05  0.565E-03    0.03       1.1  T
  47   -434.6011141 -0.271859E-04  0.311E-03    0.03       2.1  T
  48   -434.6011169 -0.286435E-05  0.266E-03    0.03       2.4  T
  49   -434.6011210 -0.409050E-05  0.191E-03    0.03       3.4  T
  50   -434.6011245 -0.349779E-05  0.823E-04    0.03       7.9  T
  51   -434.6011251 -0.570411E-06  0.408E-04    0.03      15.9  T
  52   -434.6011253 -0.162862E-06  0.145E-04    0.03      44.6  T
  53   -434.6011253 -0.233136E-07  0.593E-05    0.03     109.2  T
     SCC iter.                  ...        0 min, 18.074 sec
     gradient                   ...        0 min,  0.945 sec
 * total energy  :  -427.4476007 Eh     change       -0.2665304E-01 Eh
   gradient norm :     0.0589076 Eh/α   predicted    -0.2439848E-01 (  -8.46%)
   displ. norm   :     0.8699075 α      lambda       -0.2960633E-01
   maximum displ.:     0.3521944 α      in ANC's #60, #124, #58, ...

........................................................................
.............................. CYCLE    7 ..............................
........................................................................
   1   -434.5270527 -0.434527E+03  0.214E-01    0.08       0.0  T
   2   -426.8419927  0.768506E+01  0.272E+00    0.00       1.0  T
   3   -429.7885953 -0.294660E+01  0.192E+00    0.01       1.0  T
   4   -426.4089891  0.337961E+01  0.254E+00    0.01       1.0  T
   5   -423.8463237  0.256267E+01  0.288E+00    0.01       1.0  T
   6   -425.8594504 -0.201313E+01  0.258E+00    0.01       1.0  T
   7   -425.4637524  0.395698E+00  0.265E+00    0.01       1.0  T
   8   -415.6868224  0.977693E+01  0.371E+00    0.06       1.0  T
   9   -415.3662629  0.320559E+00  0.374E+00    0.05       1.0  T
  10   -415.1576263  0.208637E+00  0.375E+00    0.06       1.0  T
  11   -421.0767152 -0.591909E+01  0.316E+00    0.01       1.0  T
  12   -424.9231060 -0.384639E+01  0.266E+00    0.01       1.0  T
  13   -431.5418385 -0.661873E+01  0.151E+00    0.00       1.0  T
  14   -434.0944752 -0.255264E+01  0.574E-01    0.01       1.0  T
  15   -429.8231758  0.427130E+01  0.191E+00    0.00       1.0  T
  16   -434.0626554 -0.423948E+01  0.617E-01    0.00       1.0  T
  17   -429.2653779  0.479728E+01  0.201E+00    0.01       1.0  T
  18   -433.4118999 -0.414652E+01  0.948E-01    0.00       1.0  T
  19   -434.2446855 -0.832786E+00  0.512E-01    0.00       1.0  T
  20   -434.3599703 -0.115285E+00  0.390E-01    0.00       1.0  T
  21   -434.3447811  0.151893E-01  0.413E-01    0.02       1.0  T
  22   -434.2058229  0.138958E+00  0.524E-01    0.02       1.0  T
  23   -434.3836189 -0.177796E+00  0.380E-01    0.01       1.0  T
  24   -434.5090857 -0.125467E+00  0.216E-01    0.02       1.0  T
  25   -434.5081883  0.897387E-03  0.218E-01    0.02       1.0  T
  26   -434.5647874 -0.565991E-01  0.660E-02    0.04       1.0  T
  27   -434.5594475  0.533985E-02  0.919E-02    0.03       1.0  T
  28   -434.5615541 -0.210661E-02  0.825E-02    0.03       1.0  T
  29   -434.5631862 -0.163206E-02  0.742E-02    0.04       1.0  T
  30   -434.5660592 -0.287300E-02  0.572E-02    0.04       1.0  T
  31   -434.5653047  0.754495E-03  0.614E-02    0.04       1.0  T
  32   -434.5665299 -0.122524E-02  0.529E-02    0.04       1.0  T
  33   -434.5669058 -0.375889E-03  0.493E-02    0.04       1.0  T
  34   -434.5676947 -0.788908E-03  0.419E-02    0.04       1.0  T
  35   -434.5681001 -0.405334E-03  0.377E-02    0.04       1.0  T
  36   -434.5685117 -0.411646E-03  0.326E-02    0.04       1.0  T
  37   -434.5695017 -0.990004E-03  0.176E-02    0.04       1.0  T
  38   -434.5696755 -0.173781E-03  0.129E-02    0.04       1.0  T
  39   -434.5698564 -0.180953E-03  0.449E-03    0.04       1.4  T
  40   -434.5698591 -0.265054E-05  0.402E-03    0.04       1.6  T
  41   -434.5698675 -0.836226E-05  0.306E-03    0.04       2.1  T
  42   -434.5698711 -0.368042E-05  0.251E-03    0.04       2.6  T
  43   -434.5698764 -0.521799E-05  0.149E-03    0.04       4.4  T
  44   -434.5698782 -0.188918E-05  0.844E-04    0.04       7.7  T
  45   -434.5698790 -0.728243E-06  0.311E-04    0.04      20.9  T
  46   -434.5698791 -0.912264E-07  0.109E-04    0.04      59.2  T
  47   -434.5698791 -0.114901E-07  0.609E-05    0.04     106.5  T
     SCC iter.                  ...        0 min, 15.997 sec
     gradient                   ...        0 min,  0.928 sec
 * total energy  :  -427.4767859 Eh     change       -0.2918527E-01 Eh
   gradient norm :     0.0684873 Eh/α   predicted    -0.2600536E-01 ( -10.90%)
   displ. norm   :     0.9577892 α      lambda       -0.3531210E-01
   maximum displ.:     0.3724662 α      in ANC's #60, #124, #58, ...

........................................................................
.............................. CYCLE    8 ..............................
........................................................................
   1   -434.4778927 -0.434478E+03  0.221E-01    0.09       0.0  T
   2   -426.8144712  0.766342E+01  0.273E+00    0.00       1.0  T
   3   -428.1986896 -0.138422E+01  0.220E+00    0.02       1.0  T
   4   -427.0237277  0.117496E+01  0.245E+00    0.01       1.0  T
   5   -424.8297108  0.219402E+01  0.273E+00    0.01       1.0  T
   6   -427.8216026 -0.299189E+01  0.230E+00    0.01       1.0  T
   7   -426.1163798  0.170522E+01  0.255E+00    0.02       1.0  T
   8   -414.6684936  0.114479E+02  0.379E+00    0.07       1.0  T
   9   -411.4115885  0.325691E+01  0.407E+00    0.14       1.0  T
  10   -411.5301047 -0.118516E+00  0.405E+00    0.13       1.0  T
  11   -420.6394777 -0.910937E+01  0.317E+00    0.01       1.0  T
  12   -431.9550707 -0.113156E+02  0.142E+00    0.02       1.0  T
  13   -430.7931445  0.116193E+01  0.171E+00    0.00       1.0  T
  14   -431.9526017 -0.115946E+01  0.143E+00    0.03       1.0  T
  15   -433.5906584 -0.163806E+01  0.862E-01    0.03       1.0  T
  16   -431.8437118  0.174695E+01  0.143E+00    0.02       1.0  T
  17   -431.1134632  0.730249E+00  0.162E+00    0.02       1.0  T
  18   -431.1418209 -0.283578E-01  0.160E+00    0.01       1.0  T
  19   -432.2925096 -0.115069E+01  0.131E+00    0.00       1.0  T
  20   -434.4993411 -0.220683E+01  0.131E-01    0.03       1.0  T
  21   -434.1222163  0.377125E+00  0.540E-01    0.01       1.0  T
  22   -434.0968955  0.253208E-01  0.569E-01    0.01       1.0  T
  23   -434.1997672 -0.102872E+00  0.502E-01    0.01       1.0  T
  24   -434.4486640 -0.248897E+00  0.236E-01    0.02       1.0  T
  25   -434.5144931 -0.658291E-01  0.789E-02    0.05       1.0  T
  26   -434.4295405  0.849526E-01  0.271E-01    0.03       1.0  T
  27   -434.5090593 -0.795188E-01  0.103E-01    0.05       1.0  T
  28   -434.5029460  0.611332E-02  0.122E-01    0.05       1.0  T
  29   -434.5080411 -0.509517E-02  0.105E-01    0.05       1.0  T
  30   -434.5195047 -0.114636E-01  0.322E-02    0.05       1.0  T
  31   -434.5204377 -0.932997E-03  0.207E-02    0.05       1.0  T
  32   -434.5203024  0.135264E-03  0.242E-02    0.05       1.0  T
  33   -434.5208974 -0.594912E-03  0.990E-03    0.05       1.0  T
  34   -434.5206091  0.288264E-03  0.181E-02    0.05       1.0  T
  35   -434.5209104 -0.301315E-03  0.936E-03    0.05       1.0  T
  36   -434.5209022  0.825242E-05  0.958E-03    0.05       1.0  T
  37   -434.5209446 -0.424688E-04  0.753E-03    0.05       1.0  T
  38   -434.5209943 -0.497239E-04  0.389E-03    0.05       1.7  T
  39   -434.5209999 -0.552700E-05  0.316E-03    0.05       2.1  T
  40   -434.5210056 -0.572737E-05  0.222E-03    0.05       2.9  T
  41   -434.5210014  0.424946E-05  0.284E-03    0.05       2.3  T
  42   -434.5210073 -0.594597E-05  0.182E-03    0.05       3.6  T
  43   -434.5210077 -0.407265E-06  0.169E-03    0.05       3.8  T
  44   -434.5210102 -0.245289E-05  0.921E-04    0.05       7.0  T
  45   -434.5210108 -0.638513E-06  0.540E-04    0.05      12.0  T
  46   -434.5210111 -0.285192E-06  0.244E-04    0.05      26.6  T
  47   -434.5210111 -0.563555E-07  0.112E-04    0.05      58.1  T
  48   -434.5210111 -0.728653E-08  0.792E-05    0.05      81.8  T
     SCC iter.                  ...        0 min, 16.230 sec
     gradient                   ...        0 min,  0.942 sec
 * total energy  :  -427.5127078 Eh     change       -0.3592185E-01 Eh
   gradient norm :     0.0910690 Eh/α   predicted    -0.3385301E-01 (  -5.76%)
   displ. norm   :     0.9601989 α      lambda       -0.3746833E-01
   maximum displ.:     0.3839665 α      in ANC's #60, #124, #58, ...

........................................................................
.............................. CYCLE    9 ..............................
........................................................................
   1   -434.4565318 -0.434457E+03  0.164E-01    0.09       0.0  T
   2   -427.6009387  0.685559E+01  0.259E+00    0.05       1.0  T
   3   -420.8887990  0.671214E+01  0.316E+00    0.01       1.0  T
   4   -431.7524667 -0.108637E+02  0.146E+00    0.01       1.0  T
   5   -410.3442763  0.214082E+02  0.417E+00    0.24       1.0  T
   6   -425.3277348 -0.149835E+02  0.262E+00    0.04       1.0  T
   7   -427.0365001 -0.170877E+01  0.241E+00    0.03       1.0  T
   8   -420.8211156  0.621538E+01  0.317E+00    0.01       1.0  T
   9   -420.3318963  0.489219E+00  0.322E+00    0.01       1.0  T
  10   -432.3038775 -0.119720E+02  0.130E+00    0.02       1.0  T
  11   -427.9619763  0.434190E+01  0.223E+00    0.02       1.0  T
  12   -434.0227039 -0.606073E+01  0.586E-01    0.04       1.0  T
  13   -432.9655085  0.105720E+01  0.107E+00    0.02       1.0  T
  14   -434.0458087 -0.108030E+01  0.567E-01    0.03       1.0  T
  15   -432.5045083  0.154130E+01  0.124E+00    0.02       1.0  T
  16   -433.7213474 -0.121684E+01  0.761E-01    0.01       1.0  T
  17   -433.6962691  0.250783E-01  0.770E-01    0.01       1.0  T
  18   -434.2371453 -0.540876E+00  0.433E-01    0.03       1.0  T
  19   -434.4454666 -0.208321E+00  0.173E-01    0.04       1.0  T
  20   -434.3870506  0.584159E-01  0.277E-01    0.03       1.0  T
  21   -434.3458007  0.412499E-01  0.326E-01    0.04       1.0  T
  22   -434.3510868 -0.528610E-02  0.321E-01    0.04       1.0  T
  23   -434.3732693 -0.221825E-01  0.292E-01    0.04       1.0  T
  24   -434.4033837 -0.301144E-01  0.245E-01    0.04       1.0  T
  25   -434.4635720 -0.601882E-01  0.117E-01    0.05       1.0  T
  26   -434.4705830 -0.701099E-02  0.881E-02    0.05       1.0  T
  27   -434.4745027 -0.391975E-02  0.673E-02    0.05       1.0  T
  28   -434.4742454  0.257309E-03  0.681E-02    0.05       1.0  T
  29   -434.4752124 -0.967042E-03  0.620E-02    0.05       1.0  T
  30   -434.4753860 -0.173599E-03  0.599E-02    0.05       1.0  T
  31   -434.4773307 -0.194465E-02  0.450E-02    0.05       1.0  T
  32   -434.4783853 -0.105463E-02  0.337E-02    0.05       1.0  T
  33   -434.4793649 -0.979593E-03  0.186E-02    0.06       1.0  T
  34   -434.4796382 -0.273340E-03  0.108E-02    0.06       1.0  T
  35   -434.4796927 -0.544400E-04  0.839E-03    0.06       1.0  T
  36   -434.4797273 -0.346590E-04  0.645E-03    0.06       1.0  T
  37   -434.4797234  0.396678E-05  0.667E-03    0.06       1.0  T
  38   -434.4797405 -0.171024E-04  0.553E-03    0.06       1.2  T
  39   -434.4797525 -0.119686E-04  0.454E-03    0.06       1.4  T
  40   -434.4797630 -0.105797E-04  0.342E-03    0.06       1.9  T
  41   -434.4797700 -0.700775E-05  0.241E-03    0.06       2.7  T
  42   -434.4797750 -0.492980E-05  0.134E-03    0.06       4.8  T
  43   -434.4797750  0.136334E-07  0.133E-03    0.06       4.9  T
  44   -434.4797760 -0.106840E-05  0.941E-04    0.06       6.9  T
  45   -434.4797764 -0.365333E-06  0.743E-04    0.06       8.7  T
  46   -434.4797768 -0.373554E-06  0.475E-04    0.06      13.6  T
  47   -434.4797770 -0.273052E-06  0.821E-05    0.06      78.9  T
  48   -434.4797770 -0.336166E-08  0.519E-05    0.06     124.9  T
     SCC iter.                  ...        0 min, 16.602 sec
     gradient                   ...        0 min,  0.954 sec
 * total energy  :  -427.5513193 Eh     change       -0.3861156E-01 Eh
   gradient norm :     0.1230628 Eh/α   predicted    -0.3600674E-01 (  -6.75%)
   displ. norm   :     0.9303413 α      lambda       -0.3971025E-01
   maximum displ.:     0.3850401 α      in ANC's #60, #124, #58, ...

........................................................................
.............................. CYCLE   10 ..............................
........................................................................
   1   -434.4343012 -0.434434E+03  0.119E-01    0.08       0.0  T
   2   -423.7876816  0.106466E+02  0.286E+00    0.06       1.0  T
   3   -427.7051726 -0.391749E+01  0.229E+00    0.01       1.0  T
   4   -427.6642774  0.408951E-01  0.231E+00    0.00       1.0  T
   5   -431.0928490 -0.342857E+01  0.162E+00    0.00       1.0  T
   6   -418.2814060  0.128114E+02  0.344E+00    0.06       1.0  T
   7   -431.8518478 -0.135704E+02  0.142E+00    0.01       1.0  T
   8   -425.2615991  0.659025E+01  0.262E+00    0.04       1.0  T
   9   -424.4626467  0.798952E+00  0.273E+00    0.03       1.0  T
  10   -425.6183301 -0.115568E+01  0.258E+00    0.03       1.0  T
  11   -427.4495630 -0.183123E+01  0.229E+00    0.04       1.0  T
  12   -433.6818047 -0.623224E+01  0.776E-01    0.03       1.0  T
  13   -432.8126475  0.869157E+00  0.112E+00    0.02       1.0  T
  14   -430.8605031  0.195214E+01  0.164E+00    0.00       1.0  T
  15   -431.8508588 -0.990356E+00  0.141E+00    0.01       1.0  T
  16   -433.9649745 -0.211412E+01  0.615E-01    0.05       1.0  T
  17   -433.8001521  0.164822E+00  0.717E-01    0.04       1.0  T
  18   -433.4951923  0.304960E+00  0.870E-01    0.02       1.0  T
  19   -433.7909690 -0.295777E+00  0.726E-01    0.04       1.0  T
  20   -433.3915389  0.399430E+00  0.916E-01    0.02       1.0  T
  21   -433.0526166  0.338922E+00  0.105E+00    0.01       1.0  T
  22   -432.6199838  0.432633E+00  0.120E+00    0.00       1.0  T
  23   -432.8541948 -0.234211E+00  0.112E+00    0.00       1.0  T
  24   -433.9186570 -0.106446E+01  0.649E-01    0.05       1.0  T
  25   -433.8878179  0.308391E-01  0.663E-01    0.03       1.0  T
  26   -434.0624975 -0.174680E+00  0.546E-01    0.04       1.0  T
  27   -434.0747210 -0.122236E-01  0.534E-01    0.04       1.0  T
  28   -434.0823765 -0.765542E-02  0.529E-01    0.04       1.0  T
  29   -434.1714947 -0.891183E-01  0.461E-01    0.04       1.0  T
  30   -434.3771521 -0.205657E+00  0.233E-01    0.05       1.0  T
  31   -434.4169261 -0.397740E-01  0.149E-01    0.05       1.0  T
  32   -434.4371525 -0.202264E-01  0.797E-02    0.06       1.0  T
  33   -434.4377127 -0.560188E-03  0.776E-02    0.06       1.0  T
  34   -434.4448778 -0.716513E-02  0.230E-02    0.06       1.0  T
  35   -434.4444485  0.429341E-03  0.295E-02    0.06       1.0  T
  36   -434.4449702 -0.521666E-03  0.211E-02    0.06       1.0  T
  37   -434.4452713 -0.301173E-03  0.137E-02    0.06       1.0  T
  38   -434.4452798 -0.846041E-05  0.133E-02    0.06       1.0  T
  39   -434.4450875  0.192338E-03  0.181E-02    0.06       1.0  T
  40   -434.4450149  0.725518E-04  0.197E-02    0.06       1.0  T
  41   -434.4449206  0.942975E-04  0.215E-02    0.06       1.0  T
  42   -434.4448230  0.976337E-04  0.233E-02    0.06       1.0  T
  43   -434.4448369 -0.138941E-04  0.230E-02    0.06       1.0  T
  44   -434.4449206 -0.837082E-04  0.216E-02    0.06       1.0  T
  45   -434.4449890 -0.684343E-04  0.203E-02    0.06       1.0  T
  46   -434.4450318 -0.427346E-04  0.193E-02    0.06       1.0  T
  47   -434.4451307 -0.989257E-04  0.169E-02    0.06       1.0  T
  48   -434.4452450 -0.114301E-03  0.137E-02    0.06       1.0  T
  49   -434.4453654 -0.120458E-03  0.924E-03    0.06       1.0  T
  50   -434.4454523 -0.868858E-04  0.391E-03    0.06       1.7  T
  51   -434.4454679 -0.155789E-04  0.165E-03    0.06       3.9  T
  52   -434.4454707 -0.278831E-05  0.719E-04    0.06       9.0  T
  53   -434.4454713 -0.639653E-06  0.142E-04    0.06      45.6  T
  54   -434.4454713 -0.161630E-07  0.781E-05    0.06      83.0  T
     SCC iter.                  ...        0 min, 18.795 sec
     gradient                   ...        0 min,  0.958 sec
 * total energy  :  -427.5904287 Eh     change       -0.3910934E-01 Eh
   gradient norm :     0.1473962 Eh/α   predicted    -0.3704043E-01 (  -5.29%)
   displ. norm   :     0.8588828 α      lambda       -0.6670870E-01
   maximum displ.:     0.2720225 α      in ANC's #60, #136, #124, ...

........................................................................
.............................. CYCLE   11 ..............................
........................................................................
   1   -434.3472257 -0.434347E+03  0.268E-01    0.03       0.0  T
   2   -383.5889306  0.507583E+02  0.592E+00    0.01       1.0  T
   3   -406.6322023 -0.230433E+02  0.450E+00    0.05       1.0  T
   4   -410.8330573 -0.420085E+01  0.409E+00    0.16       1.0  T
   5   -427.5290057 -0.166959E+02  0.231E+00    0.03       1.0  T
   6   -409.4825763  0.180464E+02  0.424E+00    0.27       1.0  T
   7   -426.4663365 -0.169838E+02  0.246E+00    0.02       1.0  T
   8   -420.5338306  0.593251E+01  0.315E+00    0.02       1.0  T
   9   -418.3870106  0.214682E+01  0.342E+00    0.04       1.0  T
  10   -425.5058597 -0.711885E+01  0.259E+00    0.03       1.0  T
  11   -411.9415279  0.135643E+02  0.399E+00    0.13       1.0  T
  12   -411.0545406  0.886987E+00  0.406E+00    0.18       1.0  T
  13   -411.1266282 -0.720876E-01  0.406E+00    0.18       1.0  T
  14   -417.3806696 -0.625404E+01  0.348E+00    0.04       1.0  T
  15   -428.9802039 -0.115995E+02  0.204E+00    0.01       1.0  T
  16   -423.9846210  0.499558E+01  0.278E+00    0.04       1.0  T
  17   -434.2137156 -0.102291E+02  0.379E-01    0.08       1.0  T
  18   -431.8948001  0.231892E+01  0.140E+00    0.01       1.0  T
  19   -433.1675416 -0.127274E+01  0.986E-01    0.01       1.0  T
  20   -433.9615230 -0.793981E+00  0.587E-01    0.04       1.0  T
  21   -432.4325253  0.152900E+01  0.126E+00    0.00       1.0  T
  22   -434.2594735 -0.182695E+01  0.342E-01    0.02       1.0  T
  23   -434.1818621  0.776114E-01  0.416E-01    0.04       1.0  T
  24   -434.3105353 -0.128673E+00  0.282E-01    0.04       1.0  T
  25   -433.8933859  0.417149E+00  0.621E-01    0.03       1.0  T
  26   -434.2582405 -0.364855E+00  0.336E-01    0.05       1.0  T
  27   -434.1947237  0.635168E-01  0.405E-01    0.04       1.0  T
  28   -434.1580105  0.367132E-01  0.439E-01    0.04       1.0  T
  29   -434.2318262 -0.738157E-01  0.374E-01    0.05       1.0  T
  30   -434.2613697 -0.295435E-01  0.344E-01    0.05       1.0  T
  31   -434.3113957 -0.500260E-01  0.283E-01    0.06       1.0  T
  32   -434.3314932 -0.200975E-01  0.253E-01    0.06       1.0  T
  33   -434.3769193 -0.454261E-01  0.170E-01    0.07       1.0  T
  34   -434.3950692 -0.181499E-01  0.120E-01    0.07       1.0  T
  35   -434.4099478 -0.148786E-01  0.526E-02    0.07       1.0  T
  36   -434.4113378 -0.138993E-02  0.397E-02    0.07       1.0  T
  37   -434.4129596 -0.162178E-02  0.174E-02    0.07       1.0  T
  38   -434.4128026  0.156915E-03  0.207E-02    0.07       1.0  T
  39   -434.4130451 -0.242507E-03  0.157E-02    0.07       1.0  T
  40   -434.4132162 -0.171094E-03  0.104E-02    0.07       1.0  T
  41   -434.4133007 -0.844957E-04  0.662E-03    0.07       1.0  T
  42   -434.4132897  0.109847E-04  0.734E-03    0.07       1.0  T
  43   -434.4133257 -0.359168E-04  0.510E-03    0.07       1.3  T
  44   -434.4133424 -0.166957E-04  0.357E-03    0.07       1.8  T
  45   -434.4133452 -0.279856E-05  0.323E-03    0.07       2.0  T
  46   -434.4133499 -0.471199E-05  0.251E-03    0.07       2.6  T
  47   -434.4133551 -0.523118E-05  0.131E-03    0.07       4.9  T
  48   -434.4133558 -0.672795E-06  0.104E-03    0.07       6.2  T
  49   -434.4133569 -0.108520E-05  0.447E-04    0.07      14.5  T
  50   -434.4133571 -0.227858E-06  0.151E-04    0.07      43.0  T
  51   -434.4133571 -0.546271E-08  0.134E-04    0.07      48.3  T
     SCC iter.                  ...        0 min, 17.560 sec
     gradient                   ...        0 min,  0.961 sec
 * total energy  :  -427.6325280 Eh     change       -0.4209927E-01 Eh
   gradient norm :     0.1315363 Eh/α   predicted    -0.5795922E-01 (  37.67%)
   displ. norm   :     0.6237271 α      lambda       -0.3568359E-01
   maximum displ.:     0.3080167 α      in ANC's #60, #7, #58, ...

........................................................................
.............................. CYCLE   12 ..............................
........................................................................
   1   -434.4584861 -0.434458E+03  0.441E-02    0.06       0.0  T
   2   -420.5286363  0.139298E+02  0.323E+00    0.01       1.0  T
   3   -427.6018494 -0.707321E+01  0.232E+00    0.03       1.0  T
   4   -432.6800144 -0.507817E+01  0.118E+00    0.01       1.0  T
   5   -431.3623207  0.131769E+01  0.155E+00    0.01       1.0  T
   6   -433.0673449 -0.170502E+01  0.103E+00    0.03       1.0  T
   7   -430.1513048  0.291604E+01  0.181E+00    0.01       1.0  T
   8   -424.9504122  0.520089E+01  0.263E+00    0.01       1.0  T
   9   -426.7795936 -0.182918E+01  0.238E+00    0.02       1.0  T
  10   -433.1550912 -0.637550E+01  0.100E+00    0.00       1.0  T
  11   -433.3833669 -0.228276E+00  0.920E-01    0.03       1.0  T
  12   -434.0564748 -0.673108E+00  0.547E-01    0.05       1.0  T
  13   -434.0851269 -0.286521E-01  0.531E-01    0.05       1.0  T
  14   -434.3705634 -0.285436E+00  0.267E-01    0.05       1.0  T
  15   -434.4162781 -0.457147E-01  0.183E-01    0.06       1.0  T
  16   -434.4474822 -0.312040E-01  0.100E-01    0.07       1.0  T
  17   -434.4191713  0.283108E-01  0.177E-01    0.06       1.0  T
  18   -434.4495655 -0.303942E-01  0.915E-02    0.07       1.0  T
  19   -434.4529903 -0.342476E-02  0.762E-02    0.07       1.0  T
  20   -434.4549966 -0.200630E-02  0.654E-02    0.07       1.0  T
  21   -434.4535308  0.146582E-02  0.740E-02    0.07       1.0  T
  22   -434.4503793  0.315145E-02  0.895E-02    0.07       1.0  T
  23   -434.4495197  0.859592E-03  0.936E-02    0.07       1.0  T
  24   -434.4494996  0.201412E-04  0.937E-02    0.07       1.0  T
  25   -434.4494936  0.595161E-05  0.933E-02    0.07       1.0  T
  26   -434.4497912 -0.297608E-03  0.918E-02    0.07       1.0  T
  27   -434.4489488  0.842426E-03  0.949E-02    0.07       1.0  T
  28   -434.4518127 -0.286391E-02  0.824E-02    0.07       1.0  T
  29   -434.4519003 -0.875954E-04  0.819E-02    0.07       1.0  T
  30   -434.4562344 -0.433413E-02  0.575E-02    0.07       1.0  T
  31   -434.4593020 -0.306753E-02  0.296E-02    0.07       1.0  T
  32   -434.4601394 -0.837394E-03  0.143E-02    0.07       1.0  T
  33   -434.4603567 -0.217351E-03  0.548E-03    0.07       1.2  T
  34   -434.4603935 -0.367465E-04  0.108E-03    0.07       6.0  T
  35   -434.4603864  0.704933E-05  0.266E-03    0.07       2.4  T
  36   -434.4603858  0.624140E-06  0.274E-03    0.07       2.4  T
  37   -434.4603845  0.126855E-05  0.291E-03    0.07       2.2  T
  38   -434.4603864 -0.183133E-05  0.263E-03    0.07       2.5  T
  39   -434.4603894 -0.307483E-05  0.208E-03    0.07       3.1  T
  40   -434.4603937 -0.422430E-05  0.887E-04    0.07       7.3  T
  41   -434.4603945 -0.880565E-06  0.222E-04    0.07      29.2  T
  42   -434.4603946 -0.473162E-07  0.962E-05    0.07      67.4  T
  43   -434.4603946 -0.855090E-08  0.484E-05    0.07     133.9  T
     SCC iter.                  ...        0 min, 14.819 sec
     gradient                   ...        0 min,  0.960 sec
 * total energy  :  -427.6626023 Eh     change       -0.3007431E-01 Eh
   gradient norm :     0.0807535 Eh/α   predicted    -0.2478288E-01 ( -17.59%)
   displ. norm   :     0.7755124 α      lambda       -0.4060949E-01
   maximum displ.:     0.3602487 α      in ANC's #60, #7, #58, ...

........................................................................
.............................. CYCLE   13 ..............................
........................................................................
   1   -434.5207809 -0.434521E+03  0.111E-01    0.05       0.0  T
   2   -419.2977917  0.152230E+02  0.340E+00    0.02       1.0  T
   3   -419.5096753 -0.211884E+00  0.331E+00    0.00       1.0  T
   4   -420.8512919 -0.134162E+01  0.321E+00    0.01       1.0  T
   5   -421.8338557 -0.982564E+00  0.305E+00    0.02       1.0  T
   6   -433.6023985 -0.117685E+02  0.836E-01    0.02       1.0  T
   7   -418.0627776  0.155396E+02  0.344E+00    0.02       1.0  T
   8   -415.0509728  0.301180E+01  0.372E+00    0.09       1.0  T
   9   -420.3780038 -0.532703E+01  0.319E+00    0.00       1.0  T
  10   -428.9047418 -0.852674E+01  0.206E+00    0.02       1.0  T
  11   -430.5056618 -0.160092E+01  0.175E+00    0.01       1.0  T
  12   -433.2302942 -0.272463E+01  0.101E+00    0.02       1.0  T
  13   -433.2767398 -0.464456E-01  0.978E-01    0.02       1.0  T
  14   -432.8797422  0.396998E+00  0.113E+00    0.02       1.0  T
  15   -433.9559691 -0.107623E+01  0.668E-01    0.02       1.0  T
  16   -434.4240258 -0.468057E+00  0.302E-01    0.04       1.0  T
  17   -434.4478415 -0.238157E-01  0.262E-01    0.07       1.0  T
  18   -434.4791363 -0.312948E-01  0.209E-01    0.07       1.0  T
  19   -434.5056744 -0.265381E-01  0.155E-01    0.07       1.0  T
  20   -434.4345580  0.711164E-01  0.276E-01    0.06       1.0  T
  21   -434.4887706 -0.542126E-01  0.191E-01    0.07       1.0  T
  22   -434.5027753 -0.140047E-01  0.155E-01    0.07       1.0  T
  23   -434.5111066 -0.833124E-02  0.132E-01    0.07       1.0  T
  24   -434.5233313 -0.122247E-01  0.877E-02    0.07       1.0  T
  25   -434.5312688 -0.793749E-02  0.383E-02    0.07       1.0  T
  26   -434.5316946 -0.425801E-03  0.336E-02    0.07       1.0  T
  27   -434.5328619 -0.116728E-02  0.133E-02    0.07       1.0  T
  28   -434.5327164  0.145504E-03  0.175E-02    0.07       1.0  T
  29   -434.5327559 -0.395700E-04  0.167E-02    0.07       1.0  T
  30   -434.5327653 -0.937505E-05  0.167E-02    0.07       1.0  T
  31   -434.5327329  0.323836E-04  0.175E-02    0.07       1.0  T
  32   -434.5327256  0.728525E-05  0.176E-02    0.07       1.0  T
  33   -434.5327760 -0.503753E-04  0.163E-02    0.07       1.0  T
  34   -434.5328515 -0.754786E-04  0.143E-02    0.07       1.0  T
  35   -434.5329734 -0.121892E-03  0.102E-02    0.07       1.0  T
  36   -434.5330541 -0.806967E-04  0.613E-03    0.07       1.1  T
  37   -434.5330923 -0.381885E-04  0.252E-03    0.07       2.6  T
  38   -434.5330988 -0.651768E-05  0.100E-03    0.07       6.5  T
  39   -434.5330997 -0.903629E-06  0.493E-04    0.07      13.2  T
  40   -434.5330998 -0.143306E-06  0.364E-04    0.07      17.8  T
  41   -434.5330999 -0.283459E-07  0.329E-04    0.07      19.7  T
  42   -434.5330999 -0.509472E-07  0.262E-04    0.07      24.8  T
  43   -434.5331000 -0.517218E-07  0.166E-04    0.07      39.0  T
  44   -434.5331000 -0.256132E-07  0.843E-05    0.07      76.9  T
     SCC iter.                  ...        0 min, 15.278 sec
     gradient                   ...        0 min,  0.954 sec
 * total energy  :  -427.6872977 Eh     change       -0.2469548E-01 Eh
   gradient norm :     0.1039018 Eh/α   predicted    -0.3251648E-01 (  31.67%)
   displ. norm   :     0.8316755 α      lambda       -0.3527707E-01
   maximum displ.:     0.4075608 α      in ANC's #60, #7, #58, ...

........................................................................
.............................. CYCLE   14 ..............................
........................................................................
   1   -434.5471289 -0.434547E+03  0.503E-02    0.07       0.0  T
   2   -413.5760688  0.209711E+02  0.387E+00    0.09       1.0  T
   3   -426.8944184 -0.133183E+02  0.245E+00    0.02       1.0  T
   4   -431.9615058 -0.506709E+01  0.144E+00    0.01       1.0  T
   5   -422.8793799  0.908213E+01  0.295E+00    0.03       1.0  T
   6   -431.2998112 -0.842043E+01  0.156E+00    0.01       1.0  T
   7   -415.7597667  0.155400E+02  0.366E+00    0.06       1.0  T
   8   -434.3000813 -0.185403E+02  0.432E-01    0.08       1.0  T
   9   -433.8926269  0.407454E+00  0.706E-01    0.04       1.0  T
  10   -434.0480863 -0.155459E+00  0.631E-01    0.05       1.0  T
  11   -434.1092642 -0.611779E-01  0.579E-01    0.05       1.0  T
  12   -433.6038746  0.505390E+00  0.852E-01    0.03       1.0  T
  13   -433.1267337  0.477141E+00  0.104E+00    0.02       1.0  T
  14   -434.4453811 -0.131865E+01  0.280E-01    0.06       1.0  T
  15   -434.0647736  0.380607E+00  0.616E-01    0.04       1.0  T
  16   -434.5426077 -0.477834E+00  0.778E-02    0.08       1.0  T
  17   -434.5052671  0.373407E-01  0.185E-01    0.07       1.0  T
  18   -434.5381336 -0.328666E-01  0.979E-02    0.07       1.0  T
  19   -434.5290573  0.907637E-02  0.130E-01    0.07       1.0  T
  20   -434.5358825 -0.682523E-02  0.108E-01    0.08       1.0  T
  21   -434.5350536  0.828855E-03  0.110E-01    0.07       1.0  T
  22   -434.5321690  0.288461E-02  0.120E-01    0.08       1.0  T
  23   -434.5296733  0.249569E-02  0.128E-01    0.08       1.0  T
  24   -434.5307503 -0.107697E-02  0.125E-01    0.08       1.0  T
  25   -434.5328608 -0.211049E-02  0.118E-01    0.07       1.0  T
  26   -434.5329389 -0.780627E-04  0.117E-01    0.07       1.0  T
  27   -434.5362565 -0.331764E-02  0.105E-01    0.07       1.0  T
  28   -434.5427618 -0.650530E-02  0.738E-02    0.07       1.0  T
  29   -434.5461886 -0.342677E-02  0.502E-02    0.07       1.0  T
  30   -434.5480368 -0.184822E-02  0.316E-02    0.07       1.0  T
  31   -434.5486621 -0.625280E-03  0.220E-02    0.07       1.0  T
  32   -434.5489424 -0.280325E-03  0.160E-02    0.07       1.0  T
  33   -434.5489710 -0.286262E-04  0.152E-02    0.07       1.0  T
  34   -434.5490339 -0.628957E-04  0.133E-02    0.07       1.0  T
  35   -434.5490835 -0.496266E-04  0.115E-02    0.07       1.0  T
  36   -434.5491236 -0.400243E-04  0.975E-03    0.07       1.0  T
  37   -434.5491556 -0.320501E-04  0.816E-03    0.07       1.0  T
  38   -434.5491992 -0.435659E-04  0.542E-03    0.07       1.2  T
  39   -434.5492203 -0.211285E-04  0.332E-03    0.07       2.0  T
  40   -434.5492282 -0.788627E-05  0.208E-03    0.07       3.1  T
  41   -434.5492318 -0.357032E-05  0.117E-03    0.07       5.6  T
  42   -434.5492329 -0.115337E-05  0.639E-04    0.07      10.1  T
  43   -434.5492333 -0.415429E-06  0.271E-04    0.07      23.9  T
  44   -434.5492334 -0.738775E-07  0.115E-04    0.07      56.4  T
  45   -434.5492334 -0.132248E-07  0.500E-05    0.07     129.6  T
     SCC iter.                  ...        0 min, 15.717 sec
     gradient                   ...        0 min,  0.952 sec
 * total energy  :  -427.7114284 Eh     change       -0.2413064E-01 Eh
   gradient norm :     0.0665355 Eh/α   predicted    -0.2983885E-01 (  23.66%)
   displ. norm   :     0.7871518 α      lambda       -0.2341980E-01
   maximum displ.:     0.3822449 α      in ANC's #60, #7, #17, ...

........................................................................
.............................. CYCLE   15 ..............................
........................................................................
   1   -434.5733671 -0.434573E+03  0.117E-01    0.05       0.0  T
   2   -408.1742805  0.263991E+02  0.432E+00    0.10       1.0  T
   3   -408.2104598 -0.361794E-01  0.432E+00    0.36       1.0  T
   4   -425.8074264 -0.175970E+02  0.259E+00    0.00       1.0  T
   5   -409.8305406  0.159769E+02  0.419E+00    0.21       1.0  T
   6   -432.1894120 -0.223589E+02  0.136E+00    0.01       1.0  T
   7   -409.7834447  0.224060E+02  0.418E+00    0.33       1.0  T
   8   -417.8848379 -0.810139E+01  0.346E+00    0.02       1.0  T
   9   -423.5664432 -0.568161E+01  0.283E+00    0.00       1.0  T
  10   -434.1898649 -0.106234E+02  0.565E-01    0.03       1.0  T
  11   -432.8323458  0.135752E+01  0.118E+00    0.01       1.0  T
  12   -433.9427086 -0.111036E+01  0.713E-01    0.04       1.0  T
  13   -433.0795679  0.863141E+00  0.110E+00    0.04       1.0  T
  14   -434.5473091 -0.146774E+01  0.185E-01    0.08       1.0  T
  15   -434.2121347  0.335174E+00  0.550E-01    0.02       1.0  T
  16   -434.5384383 -0.326304E+00  0.208E-01    0.06       1.0  T
  17   -434.5006254  0.378128E-01  0.259E-01    0.05       1.0  T
  18   -434.5384399 -0.378144E-01  0.189E-01    0.06       1.0  T
  19   -434.5829193 -0.444794E-01  0.649E-02    0.07       1.0  T
  20   -434.5717985  0.111208E-01  0.110E-01    0.08       1.0  T
  21   -434.5858811 -0.140826E-01  0.402E-02    0.08       1.0  T
  22   -434.5553574  0.305237E-01  0.160E-01    0.07       1.0  T
  23   -434.5795152 -0.241578E-01  0.841E-02    0.08       1.0  T
  24   -434.5765987  0.291657E-02  0.964E-02    0.08       1.0  T
  25   -434.5783523 -0.175362E-02  0.882E-02    0.07       1.0  T
  26   -434.5838596 -0.550733E-02  0.581E-02    0.07       1.0  T
  27   -434.5861795 -0.231988E-02  0.385E-02    0.07       1.0  T
  28   -434.5861023  0.771695E-04  0.390E-02    0.07       1.0  T
  29   -434.5872279 -0.112563E-02  0.251E-02    0.07       1.0  T
  30   -434.5878443 -0.616379E-03  0.117E-02    0.07       1.0  T
  31   -434.5879262 -0.818669E-04  0.821E-03    0.07       1.0  T
  32   -434.5879651 -0.388888E-04  0.598E-03    0.07       1.1  T
  33   -434.5879815 -0.164323E-04  0.469E-03    0.07       1.4  T
  34   -434.5879869 -0.541805E-05  0.414E-03    0.07       1.6  T
  35   -434.5879951 -0.812348E-05  0.321E-03    0.07       2.0  T
  36   -434.5880029 -0.787346E-05  0.196E-03    0.07       3.3  T
  37   -434.5880067 -0.374700E-05  0.863E-04    0.07       7.5  T
  38   -434.5880069 -0.190406E-06  0.740E-04    0.07       8.8  T
  39   -434.5880073 -0.388076E-06  0.486E-04    0.07      13.3  T
  40   -434.5880074 -0.147696E-06  0.356E-04    0.07      18.2  T
  41   -434.5880075 -0.792613E-07  0.255E-04    0.07      25.4  T
  42   -434.5880076 -0.667794E-07  0.985E-05    0.07      65.8  T
  43   -434.5880076 -0.630070E-08  0.585E-05    0.07     110.8  T
     SCC iter.                  ...        0 min, 15.018 sec
     gradient                   ...        0 min,  0.958 sec
 * total energy  :  -427.7285239 Eh     change       -0.1709546E-01 Eh
   gradient norm :     0.0757601 Eh/α   predicted    -0.1896546E-01 (  10.94%)
   displ. norm   :     0.8274309 α      lambda       -0.2490107E-01
   maximum displ.:     0.3931116 α      in ANC's #60, #17, #7, ...

........................................................................
.............................. CYCLE   16 ..............................
........................................................................
   1   -434.6332199 -0.434633E+03  0.957E-02    0.06       0.0  T
   2   -419.0463811  0.155868E+02  0.343E+00    0.01       1.0  T
   3   -408.9196073  0.101268E+02  0.430E+00    0.46       1.0  T
   4   -434.3357182 -0.254161E+02  0.499E-01    0.07       1.0  T
   5   -426.8992496  0.743647E+01  0.240E+00    0.01       1.0  T
   6   -433.3056082 -0.640636E+01  0.102E+00    0.06       1.0  T
   7   -419.0713991  0.142342E+02  0.334E+00    0.02       1.0  T
   8   -418.7303334  0.341066E+00  0.338E+00    0.03       1.0  T
   9   -420.7997502 -0.206942E+01  0.316E+00    0.01       1.0  T
  10   -431.5761820 -0.107764E+02  0.156E+00    0.00       1.0  T
  11   -433.9766418 -0.240046E+01  0.712E-01    0.04       1.0  T
  12   -429.9393861  0.403726E+01  0.190E+00    0.02       1.0  T
  13   -434.4037866 -0.446440E+01  0.433E-01    0.06       1.0  T
  14   -434.0848006  0.318986E+00  0.670E-01    0.02       1.0  T
  15   -434.5770100 -0.492209E+00  0.236E-01    0.04       1.0  T
  16   -434.3447889  0.232221E+00  0.487E-01    0.03       1.0  T
  17   -434.5204259 -0.175637E+00  0.323E-01    0.04       1.0  T
  18   -434.5285515 -0.812562E-02  0.310E-01    0.04       1.0  T
  19   -434.5558949 -0.273434E-01  0.274E-01    0.04       1.0  T
  20   -434.4907841  0.651108E-01  0.359E-01    0.04       1.0  T
  21   -434.5064702 -0.156862E-01  0.341E-01    0.04       1.0  T
  22   -434.5858893 -0.794190E-01  0.222E-01    0.05       1.0  T
  23   -434.6373107 -0.514214E-01  0.755E-02    0.06       1.0  T
  24   -434.6413525 -0.404188E-02  0.446E-02    0.06       1.0  T
  25   -434.6387293  0.262320E-02  0.622E-02    0.07       1.0  T
  26   -434.6372682  0.146117E-02  0.713E-02    0.07       1.0  T
  27   -434.6377029 -0.434713E-03  0.690E-02    0.07       1.0  T
  28   -434.6399445 -0.224158E-02  0.548E-02    0.07       1.0  T
  29   -434.6403151 -0.370612E-03  0.522E-02    0.07       1.0  T
  30   -434.6411937 -0.878641E-03  0.451E-02    0.07       1.0  T
  31   -434.6417408 -0.547058E-03  0.401E-02    0.07       1.0  T
  32   -434.6420412 -0.300429E-03  0.369E-02    0.07       1.0  T
  33   -434.6427428 -0.701618E-03  0.282E-02    0.07       1.0  T
  34   -434.6434739 -0.731067E-03  0.145E-02    0.07       1.0  T
  35   -434.6436435 -0.169623E-03  0.861E-03    0.07       1.0  T
  36   -434.6437051 -0.615615E-04  0.491E-03    0.07       1.3  T
  37   -434.6437203 -0.151927E-04  0.338E-03    0.07       1.9  T
  38   -434.6437300 -0.973907E-05  0.177E-03    0.07       3.7  T
  39   -434.6437324 -0.234566E-05  0.103E-03    0.07       6.3  T
  40   -434.6437329 -0.561834E-06  0.795E-04    0.07       8.2  T
  41   -434.6437332 -0.279645E-06  0.638E-04    0.07      10.2  T
  42   -434.6437333 -0.131813E-06  0.546E-04    0.07      11.9  T
  43   -434.6437334 -0.104804E-06  0.462E-04    0.07      14.0  T
  44   -434.6437336 -0.141267E-06  0.313E-04    0.07      20.7  T
  45   -434.6437337 -0.793848E-07  0.178E-04    0.07      36.4  T
  46   -434.6437337 -0.351068E-07  0.540E-05    0.07     120.0  T
     SCC iter.                  ...        0 min, 16.056 sec
     gradient                   ...        0 min,  0.957 sec
 * total energy  :  -427.7461548 Eh     change       -0.1763093E-01 Eh
   gradient norm :     0.0623226 Eh/α   predicted    -0.2097473E-01 (  18.97%)
   displ. norm   :     0.8427441 α      lambda       -0.1972537E-01
   maximum displ.:     0.4199592 α      in ANC's #60, #7, #17, ...

........................................................................
.............................. CYCLE   17 ..............................
........................................................................
[...]

           -------------------------------------------------
          |                Geometry Summary                 |
           -------------------------------------------------

      molecular mass/u    :     2355.6115139
   center of mass at/Å    :       57.2873904       0.0053209      -0.0237303
  moments of inertia/u·Å² :        0.3358305E+05   0.9699718E+06   0.9967920E+06
rotational constants/cm⁻¹ :        0.5019685E-03   0.1737951E-04   0.1691189E-04

 * 238 selected distances

     #   Z          #   Z                                           value/Å
     2   6 C        3   6 C                                       1.3795963
     3   6 C        4   6 C                                       1.4319118
     4   6 C        5   6 C                                       1.3535810
     5   6 C        6   6 C                                       1.4346316 (max)
     3   6 C        7   7 N                                       1.3702058
     6   6 C        7   7 N                                       1.3689064
     6   6 C        8   6 C                                       1.3902701
     9   6 C       10   6 C                                       1.3939053
    10   6 C       11   6 C                                       1.3861027
    11   6 C       12   7 N                                       1.3290644
    12   7 N       13   6 C                                       1.3290096
     9   6 C       14   6 C                                       1.3939337
    13   6 C       14   6 C                                       1.3860999
     8   6 C       15   6 C                                       1.3872520
    15   6 C       16   6 C                                       1.4329345
    16   6 C       17   6 C                                       1.3543519
    15   6 C       18   7 N                                       1.3750342
    17   6 C       19   6 C                                       1.4295081
    18   7 N       19   6 C                                       1.3634966
    19   6 C       20   6 C                                       1.3995910
    20   6 C       21   6 C                                       1.3996937
    21   6 C       22   6 C                                       1.4293701
    22   6 C       23   6 C                                       1.3546738
    23   6 C       24   6 C                                       1.4327579
    21   6 C       25   7 N                                       1.3634372
    24   6 C       25   7 N                                       1.3744082
    24   6 C       26   6 C                                       1.3877152
    27   6 C       28   6 C                                       1.3942371
    28   6 C       29   6 C                                       1.3860505
    29   6 C       30   7 N                                       1.3290760
    30   7 N       31   6 C                                       1.3291636
    27   6 C       32   6 C                                       1.3944594
    31   6 C       32   6 C                                       1.3858691
    26   6 C       33   6 C                                       1.3904184
    33   6 C       34   6 C                                       1.4345268
    34   6 C       35   6 C                                       1.3536940
     2   6 C       36   6 C                                       1.3793930
    35   6 C       36   6 C                                       1.4318774
    33   6 C       37   7 N                                       1.3689282
    36   6 C       37   7 N                                       1.3704984
     2   6 C       38   1 H                                       1.0841791
     4   6 C       39   1 H                                       1.0784140
     5   6 C       40   1 H                                       1.0778764
    10   6 C       41   1 H                                       1.0834335
    11   6 C       42   1 H                                       1.0860556
    13   6 C       43   1 H                                       1.0861008
    14   6 C       44   1 H                                       1.0834332
    16   6 C       45   1 H                                       1.0776934
    17   6 C       46   1 H                                       1.0780657
    22   6 C       47   1 H                                       1.0780648
    23   6 C       48   1 H                                       1.0777418
    28   6 C       49   1 H                                       1.0834489
    29   6 C       50   1 H                                       1.0860935
    31   6 C       51   1 H                                       1.0860676
    32   6 C       52   1 H                                       1.0834882
    34   6 C       53   1 H                                       1.0778809
    35   6 C       54   1 H                                       1.0784083
    56   6 C       57   6 C                                       1.3791811
    57   6 C       58   6 C                                       1.4318822
    58   6 C       59   6 C                                       1.3533757
    59   6 C       60   6 C                                       1.4345514
    57   6 C       61   7 N                                       1.3703026
    60   6 C       61   7 N                                       1.3687341
    60   6 C       62   6 C                                       1.3901343
    63   6 C       64   6 C                                       1.3939845
    64   6 C       65   6 C                                       1.3860684
    65   6 C       66   7 N                                       1.3290760
    66   7 N       67   6 C                                       1.3290333
    63   6 C       68   6 C                                       1.3939236
    67   6 C       68   6 C                                       1.3861072
    62   6 C       69   6 C                                       1.3867545
    69   6 C       70   6 C                                       1.4329529
    70   6 C       71   6 C                                       1.3540924
    69   6 C       72   7 N                                       1.3751344
    71   6 C       73   6 C                                       1.4295839
    72   7 N       73   6 C                                       1.3630424
    73   6 C       74   6 C                                       1.3998205
    74   6 C       75   6 C                                       1.3997342
    75   6 C       76   6 C                                       1.4294833
    76   6 C       77   6 C                                       1.3542175
    77   6 C       78   6 C                                       1.4329190
    75   6 C       79   7 N                                       1.3630870
    78   6 C       79   7 N                                       1.3749801
    78   6 C       80   6 C                                       1.3870166
    81   6 C       82   6 C                                       1.3941770
    82   6 C       83   6 C                                       1.3860214
    83   6 C       84   7 N                                       1.3290971
    84   7 N       85   6 C                                       1.3291052
    81   6 C       86   6 C                                       1.3942017
    85   6 C       86   6 C                                       1.3860009
    80   6 C       87   6 C                                       1.3903134
    87   6 C       88   6 C                                       1.4345293
    88   6 C       89   6 C                                       1.3534615
    56   6 C       90   6 C                                       1.3791617
    89   6 C       90   6 C                                       1.4318281
    87   6 C       91   7 N                                       1.3686488
    90   6 C       91   7 N                                       1.3703448
    56   6 C       92   1 H                                       1.0842110
    58   6 C       93   1 H                                       1.0784054
    59   6 C       94   1 H                                       1.0778540
    64   6 C       95   1 H                                       1.0834348
    65   6 C       96   1 H                                       1.0860327
    67   6 C       97   1 H                                       1.0860598
    68   6 C       98   1 H                                       1.0834208
    70   6 C       99   1 H                                       1.0776822 (min)
    71   6 C      100   1 H                                       1.0780349
    76   6 C      101   1 H                                       1.0780486
    77   6 C      102   1 H                                       1.0776886
    82   6 C      103   1 H                                       1.0834618
    83   6 C      104   1 H                                       1.0860762
    85   6 C      105   1 H                                       1.0860834
    86   6 C      106   1 H                                       1.0834636
    88   6 C      107   1 H                                       1.0778599
    89   6 C      108   1 H                                       1.0784027
   109   6 C      110   6 C                                       1.2259424
   111   6 C      112   6 C                                       1.2323295
   113   6 C      114   6 C                                       1.2324718
   115   6 C      116   6 C                                       1.2262267
   117   6 C      118   6 C                                       1.2268732
   119   6 C      120   6 C                                       1.2332027
   121   6 C      122   6 C                                       1.2332258
   123   6 C      124   6 C                                       1.2269163
   125   6 C      126   6 C                                       1.2266877
   127   6 C      128   6 C                                       1.2328689
   129   6 C      130   6 C                                       1.2327686
   131   6 C      132   6 C                                       1.2263170
   134   6 C      135   6 C                                       1.4005916
   135   6 C      136   6 C                                       1.4289765
   136   6 C      137   6 C                                       1.3552283
   137   6 C      138   6 C                                       1.4320303
   135   6 C      139   7 N                                       1.3630642
   138   6 C      139   7 N                                       1.3731610
   138   6 C      140   6 C                                       1.3893523
   141   6 C      142   6 C                                       1.3941857
   142   6 C      143   6 C                                       1.3860312
   143   6 C      144   7 N                                       1.3290578
   144   7 N      145   6 C                                       1.3290438
   141   6 C      146   6 C                                       1.3942375
   145   6 C      146   6 C                                       1.3860142
   140   6 C      147   6 C                                       1.3884466
   147   6 C      148   6 C                                       1.4322823
   148   6 C      149   6 C                                       1.3551153
   147   6 C      150   7 N                                       1.3739161
   149   6 C      151   6 C                                       1.4291200
   150   7 N      151   6 C                                       1.3623640
   151   6 C      152   6 C                                       1.4011777
   152   6 C      153   6 C                                       1.4010934
   153   6 C      154   6 C                                       1.4291108
   154   6 C      155   6 C                                       1.3551049
   155   6 C      156   6 C                                       1.4322645
   153   6 C      157   7 N                                       1.3625030
   156   6 C      157   7 N                                       1.3737783
   156   6 C      158   6 C                                       1.3886451
   159   6 C      160   6 C                                       1.3942319
   160   6 C      161   6 C                                       1.3860060
   161   6 C      162   7 N                                       1.3290166
   162   7 N      163   6 C                                       1.3289874
   159   6 C      164   6 C                                       1.3942054
   163   6 C      164   6 C                                       1.3860366
   158   6 C      165   6 C                                       1.3893253
   165   6 C      166   6 C                                       1.4321075
   166   6 C      167   6 C                                       1.3552261
   134   6 C      168   6 C                                       1.4005182
   167   6 C      168   6 C                                       1.4289361
   165   6 C      169   7 N                                       1.3733053
   168   6 C      169   7 N                                       1.3630741
   136   6 C      170   1 H                                       1.0780115
   137   6 C      171   1 H                                       1.0777006
   142   6 C      172   1 H                                       1.0834481
   143   6 C      173   1 H                                       1.0860308
   145   6 C      174   1 H                                       1.0860495
   146   6 C      175   1 H                                       1.0834650
   148   6 C      176   1 H                                       1.0777185
   149   6 C      177   1 H                                       1.0780282
   154   6 C      178   1 H                                       1.0780344
   155   6 C      179   1 H                                       1.0776894
   160   6 C      180   1 H                                       1.0834295
   161   6 C      181   1 H                                       1.0860099
   163   6 C      182   1 H                                       1.0860186
   164   6 C      183   1 H                                       1.0834187
   166   6 C      184   1 H                                       1.0776900
   167   6 C      185   1 H                                       1.0780311
   187   6 C      188   6 C                                       1.4016310
   188   6 C      189   6 C                                       1.4290214
   189   6 C      190   6 C                                       1.3556068
   190   6 C      191   6 C                                       1.4322883
   188   6 C      192   7 N                                       1.3623715
   191   6 C      192   7 N                                       1.3736548
   191   6 C      193   6 C                                       1.3892994
   194   6 C      195   6 C                                       1.3944258
   195   6 C      196   6 C                                       1.3859659
   196   6 C      197   7 N                                       1.3291177
   197   7 N      198   6 C                                       1.3290445
   194   6 C      199   6 C                                       1.3944399
   198   6 C      199   6 C                                       1.3859654
   193   6 C      200   6 C                                       1.3899632
   200   6 C      201   6 C                                       1.4320539
   201   6 C      202   6 C                                       1.3557991
   200   6 C      203   7 N                                       1.3730210
   202   6 C      204   6 C                                       1.4288062
   203   7 N      204   6 C                                       1.3628396
   204   6 C      205   6 C                                       1.4014609
   205   6 C      206   6 C                                       1.4014803
   206   6 C      207   6 C                                       1.4289678
   207   6 C      208   6 C                                       1.3557523
   208   6 C      209   6 C                                       1.4320604
   206   6 C      210   7 N                                       1.3628946
   209   6 C      210   7 N                                       1.3730460
   209   6 C      211   6 C                                       1.3899350
   212   6 C      213   6 C                                       1.3944027
   213   6 C      214   6 C                                       1.3859635
   214   6 C      215   7 N                                       1.3290153
   215   7 N      216   6 C                                       1.3290287
   212   6 C      217   6 C                                       1.3943785
   216   6 C      217   6 C                                       1.3859656
   211   6 C      218   6 C                                       1.3892999
   218   6 C      219   6 C                                       1.4322433
   219   6 C      220   6 C                                       1.3556159
   187   6 C      221   6 C                                       1.4016793
   220   6 C      221   6 C                                       1.4289656
   218   6 C      222   7 N                                       1.3736813
   221   6 C      222   7 N                                       1.3623608
   189   6 C      223   1 H                                       1.0780770
   190   6 C      224   1 H                                       1.0777314
   195   6 C      225   1 H                                       1.0834507
   196   6 C      226   1 H                                       1.0859749
   198   6 C      227   1 H                                       1.0859955
   199   6 C      228   1 H                                       1.0834224
   201   6 C      229   1 H                                       1.0777201
   202   6 C      230   1 H                                       1.0780696
   207   6 C      231   1 H                                       1.0780581
   208   6 C      232   1 H                                       1.0777850
   213   6 C      233   1 H                                       1.0834846
   214   6 C      234   1 H                                       1.0860890
   216   6 C      235   1 H                                       1.0861000
   217   6 C      236   1 H                                       1.0834787
   219   6 C      237   1 H                                       1.0777293
   220   6 C      238   1 H                                       1.0780498

 * 3 distinct bonds (by element types)

   Z      Z             #   av. dist./Å        max./Å        min./Å
   1 H    6 C          66     1.0814342     1.0861008     1.0776822
   6 C    6 C         124     1.3811996     1.4346316     1.2259424
   6 C    7 N          48     1.3554825     1.3751344     1.3289874


optimized geometry written to: xtbopt.xyz


           -------------------------------------------------
          | TOTAL ENERGY             -427.862779051612 Eh   |
          | GRADIENT NORM               0.000572708951 Eh/α |
          | HOMO-LUMO GAP               0.045099057314 eV   |
           -------------------------------------------------

------------------------------------------------------------------------
 * finished run on 2022/07/29 at 18:02:03.751     
------------------------------------------------------------------------
 total:
 * wall-time:     0 d,  0 h, 19 min, 18.033 sec
 *  cpu-time:     0 d,  0 h, 19 min,  8.473 sec
 * ratio c/w:     0.992 speedup
 SCF:
 * wall-time:     0 d,  0 h,  0 min, 45.710 sec
 *  cpu-time:     0 d,  0 h,  0 min, 45.360 sec
 * ratio c/w:     0.992 speedup
 ANC optimizer:
 * wall-time:     0 d,  0 h, 18 min, 31.847 sec
 *  cpu-time:     0 d,  0 h, 18 min, 22.695 sec
 * ratio c/w:     0.992 speedup

