238
 energy: -426.612125902831 gnorm: 1.612317720714 xtb: 6.5.1 (b24c23e)
Fe          28.24138400000000        0.01109500000000       -0.01193700000000
C           24.87535000000000       -0.10305700000000       -0.04387400000000
C           25.53828800000000       -1.26148300000000        0.01368000000000
C           24.88665300000000       -2.56441300000000        0.07249100000000
C           25.82651100000000       -3.48478500000000        0.17941700000000
C           27.13267300000000       -2.81201000000000        0.19337000000000
N           26.95651399999999       -1.39909600000000        0.08343400000000
C           28.32156800000000       -3.42994200000000        0.34691100000000
C           28.35734300000000       -4.90113500000000        0.49725500000000
C           28.56261600000000       -5.47759400000000        1.75779400000000
C           28.59128600000000       -6.86889700000000        1.87879200000000
N           28.41862400000000       -7.65272500000000        0.78106700000000
C           28.21668400000000       -7.11777400000000       -0.45268900000000
C           28.18334500000000       -5.73110400000000       -0.61845600000000
C           29.61581000000000       -2.69919200000000        0.38680100000000
C           30.90582600000000       -3.33688400000000        0.67626500000000
C           31.84045500000000       -2.41264300000000        0.59248600000000
N           29.75766700000000       -1.43503100000000        0.12765200000000
C           31.15682900000000       -1.17491300000000        0.23951000000000
C           31.75321500000000        0.00225600000000       -0.01275600000000
C           30.99535200000000        1.21812200000000       -0.38605600000000
C           31.53864600000000        2.29157500000000       -0.94591800000000
C           30.49597400000000        3.29114800000000       -1.06401400000000
C           29.38431900000000        2.76437600000000       -0.56498500000000
N           29.60906900000000        1.42732000000000       -0.11451900000000
C           28.09921200000000        3.49763000000000       -0.42807600000000
C           28.12206000000000        4.98027100000000       -0.47527100000000
C           27.46034700000000        5.67420400000000       -1.49881700000000
C           27.50455700000000        7.07011100000000       -1.52160600000000
N           28.19119200000000        7.74729600000000       -0.56285400000000
C           28.85039400000000        7.09941300000000        0.43368000000000
C           28.83149299999999        5.70407900000000        0.49413700000000
C           26.93232100000000        2.84885100000000       -0.25075600000000
C           25.62011400000000        3.46514700000000       -0.06089200000000
C           24.75787400000000        2.47161600000000        0.03291500000000
C           25.51026500000000        1.22367000000000       -0.08246200000000
N           26.77862900000000        1.43083800000000       -0.24794700000000
H           23.79220000000000       -0.13103900000000       -0.04406900000000
H           23.82226700000000       -2.75894900000000        0.04734200000000
H           25.63797500000000       -4.54776600000000        0.25701200000000
H           28.69901800000000       -4.85618300000000        2.63423700000000
H           28.75010000000000       -7.32604100000000        2.84625200000000
H           28.08151100000000       -7.76933600000000       -1.30561600000000
H           28.02191000000000       -5.30811300000000       -1.60218800000000
H           31.08392100000000       -4.37760600000000        0.91100300000000
H           32.89821200000000       -2.57576800000000        0.74652400000000
H           32.57182500000000        2.41667900000000       -1.23957600000000
H           30.61395800000000        4.29026100000000       -1.46178900000000
H           26.91970299999999        5.13953100000000       -2.26908800000000
H           26.99389800000000        7.61557600000000       -2.30392900000000
H           29.38865100000000        7.66766400000000        1.18082000000000
H           29.35698700000000        5.19297800000000        1.29137200000000
H           25.37559000000000        4.51748700000000       -0.00006500000000
H           23.69075400000000        2.57612600000000        0.17916000000000
Fe          86.33174500000000       -0.00596200000000       -0.00940300000000
C           89.69777899999998        0.09397300000000       -0.07314800000000
C           89.03484100000000        1.21909200000000       -0.35487600000000
C           89.68647600000000        2.48283900000000       -0.67741300000000
C           88.74661800000000        3.39454100000000       -0.84269000000000
C           87.44045600000000        2.75488500000000       -0.63374100000000
N           87.61661599999999        1.37104200000000       -0.32814400000000
C           86.25156100000000        3.39076400000000       -0.66648700000000
C           86.21578599999999        4.84211600000000       -0.95036400000000
C           86.01051300000000        5.76015800000000        0.08812700000000
C           85.98184300000000        7.12654000000000       -0.20060200000000
N           86.15450500000000        7.55736200000000       -1.47879600000000
C           86.35644499999999        6.68682200000000       -2.50372900000000
C           86.38978400000001        5.31185700000000       -2.25918200000000
C           84.95731900000000        2.70317700000000       -0.41586500000000
C           83.66730300000000        3.39748100000000       -0.32430400000000
C           82.73267500000000        2.48880600000000       -0.13575400000000
N           84.81546299999999        1.41827900000000       -0.29628300000000
C           83.41630000000001        1.20191900000000       -0.11363200000000
C           82.81991399999998        0.00225600000000       -0.01275600000000
C           83.57777800000000       -1.26962000000000       -0.01643500000000
C           83.03448299999999       -2.45947500000000       -0.24002400000000
C           84.07715500000000       -3.45020400000000       -0.06240700000000
C           85.18881100000000       -2.80110200000000        0.26191500000000
N           84.96406000000000       -1.39083600000000        0.30419300000000
C           86.47391699999999       -3.46287800000000        0.60609300000000
C           86.45106900000000       -4.89519500000000        0.99199200000000
C           87.11278200000000       -5.85673300000000        0.21441100000000
C           87.06857199999999       -7.19896800000000        0.59844600000000
N           86.38193800000001       -7.56815800000000        1.71266400000000
C           85.72273500000000       -6.65853300000000        2.47778900000000
C           85.74163600000000       -5.30589600000000        2.12996100000000
C           87.64080800000001       -2.79057100000000        0.58713100000000
C           88.95301499999998       -3.32504400000000        0.94797200000000
C           89.81525599999999       -2.34715800000000        0.74887200000000
C           89.06286400000000       -1.18666200000000        0.27565700000000
N           87.79450100000000       -1.43299400000000        0.17755100000000
H           90.78092899999999        0.12069000000000       -0.08147000000000
H           90.75086199999998        2.66166100000000       -0.75803400000000
H           88.93515400000000        4.43416500000000       -1.07749300000000
H           85.87411099999998        5.42040300000000        1.10737700000000
H           85.82302900000001        7.84521200000000        0.59215900000000
H           86.49161800000000        7.06226300000000       -3.50924400000000
H           86.55122000000000        4.62113300000000       -3.07744100000000
H           83.48920799999999        4.46149400000000       -0.40228100000000
H           81.67491699999999        2.68966900000000       -0.03579700000000
H           82.00130400000000       -2.66455200000000       -0.48462400000000
H           83.95917100000000       -4.52180600000000       -0.15252200000000
H           87.65342600000000       -5.56910100000000       -0.67803600000000
H           87.57923099999998       -7.94831900000000        0.00850200000000
H           85.18447799999998       -6.98501800000000        3.35786600000000
H           85.21614299999999       -4.58508900000000        2.74416400000000
H           89.19753899999999       -4.31424300000000        1.31212300000000
H           90.88237500000000       -2.40463500000000        0.91918500000000
C           34.53302400000000        0.01476700000000       -0.00400500000000
C           35.99125100000000       -0.00706900000000       -0.02187800000000
C           37.12517900000000       -0.02782300000000       -0.02336900000000
C           38.48656100000000       -0.04041300000000       -0.02556000000000
C           39.76077900000000       -0.03010600000000       -0.03032500000000
C           40.94924200000000       -0.01130800000000       -0.03648100000000
C           42.30160300000000        0.01347600000000       -0.02061300000000
C           43.40187000000000        0.01476700000000       -0.00400500000000
C           52.79932400000000        0.01476700000000       -0.00400500000000
C           54.25755000000000       -0.00706900000000       -0.02187800000000
C           55.39147799999999       -0.02782300000000       -0.02336900000000
C           56.75285999999999       -0.04041300000000       -0.02556000000000
C           58.02707899999999       -0.03010600000000       -0.03032500000000
C           59.21554099999999       -0.01130800000000       -0.03648100000000
C           60.56790199999999        0.01347600000000       -0.02061300000000
C           61.66816900000000        0.01476700000000       -0.00400500000000
C           71.06562300000000        0.01476700000000       -0.00400500000000
C           72.52385000000000       -0.00706900000000       -0.02187800000000
C           73.65777799999998       -0.02782300000000       -0.02336900000000
C           75.01915900000000       -0.04041300000000       -0.02556000000000
C           76.29337799999999       -0.03010600000000       -0.03032500000000
C           77.48184100000000       -0.01130800000000       -0.03648100000000
C           78.83420099999998        0.01347600000000       -0.02061300000000
C           79.93446899999999        0.01476700000000       -0.00400500000000
Fe          48.07571100000000        0.02891800000000       -0.05595000000000
C           44.70806800000000       -0.00564200000000        0.01390300000000
C           45.36338900000000       -0.80393500000000        0.87661900000000
C           44.72251200000000       -1.62554900000000        1.90537600000000
C           45.65882500000000       -2.30990200000000        2.53197200000000
C           46.95607600000000       -1.97030000000000        1.93842600000000
N           46.77829900000000       -1.00898900000000        0.89499500000000
C           48.14046699999999       -2.49801500000000        2.31509500000000
C           48.17653200000000       -3.53441700000000        3.37316400000000
C           47.64895200000000       -4.81212600000000        3.13648000000000
C           47.70851000000000       -5.77669500000000        4.14505000000000
N           48.27906000000000       -5.47735500000000        5.34245300000000
C           48.80320100000000       -4.24843600000000        5.59531300000000
C           48.76358099999999       -3.25427000000000        4.61483200000000
C           49.43710399999999       -2.08394300000000        1.72074400000000
C           50.70522800000000       -2.78711500000000        1.95340600000000
C           51.65726100000000       -2.11814000000000        1.33501900000000
N           49.60495200000000       -1.02992500000000        0.98430400000000
C           51.00267400000000       -0.98335700000000        0.69710900000000
C           51.61763700000000       -0.00564200000000        0.01390300000000
C           50.86657600000000        1.09462000000000       -0.62574000000000
C           51.39907099999999        2.25204400000000       -0.99621300000000
C           50.36696300000000        2.99508300000000       -1.69451400000000
C           49.27594899999999        2.23778700000000       -1.70625900000000
N           49.50140600000000        1.00223500000000       -1.02991100000000
C           48.02323600000000        2.57871300000000       -2.42265700000000
C           48.08620199999999        3.56780200000000       -3.52695600000000
C           48.89318800000000        3.32263400000000       -4.64721500000000
C           48.95765200000000        4.27249100000000       -5.66939900000000
N           48.24739699999999        5.42785400000000       -5.57301100000000
C           47.46358899999999        5.69496600000000       -4.49465800000000
C           47.37117800000000        4.77263300000000       -3.44974500000000
C           46.85192500000000        1.99527300000000       -2.10246300000000
C           45.57700800000000        2.19605700000000       -2.78379400000000
C           44.68928200000000        1.48760800000000       -2.11613300000000
C           45.38616900000000        0.82405200000000       -1.00877600000000
N           46.65024900000000        1.11379200000000       -0.99739400000000
H           43.66783699999999       -1.68122500000000        2.13939000000000
H           45.47222299999999       -2.99413700000000        3.34932300000000
H           47.19912400000000       -5.05652800000000        2.18206200000000
H           47.30268400000000       -6.76491200000000        3.97481200000000
H           49.25187399999999       -4.04297900000000        6.55784500000000
H           49.18374799999999       -2.27722200000000        4.81983500000000
H           50.85464799999999       -3.69180300000000        2.52796300000000
H           52.70611800000000       -2.38317800000000        1.32317500000000
H           52.42084300000000        2.57276000000000       -0.84276200000000
H           50.48134400000000        3.96753500000000       -2.15570300000000
H           49.46238800000000        2.40470400000000       -4.72860000000000
H           49.57399100000000        4.09126700000000       -6.53975400000000
H           46.91406900000000        6.62557600000000       -4.44658400000000
H           46.75353900000000        4.99549200000000       -2.58836700000000
H           45.37335100000000        2.79092000000000       -3.66440200000000
H           43.63955100000000        1.41631900000000       -2.36707400000000
Fe          66.34201000000000        0.02891800000000       -0.05595000000000
C           62.97436699999999       -0.00564200000000        0.01390300000000
C           63.62968800000000       -0.80393500000000        0.87661900000000
C           62.98881099999999       -1.62554900000000        1.90537600000000
C           63.92512500000000       -2.30990200000000        2.53197200000000
C           65.22237500000000       -1.97030000000000        1.93842600000000
N           65.04459799999999       -1.00898900000000        0.89499500000000
C           66.40676700000000       -2.49801500000000        2.31509500000000
C           66.44283200000000       -3.53441700000000        3.37316400000000
C           65.91525100000000       -4.81212600000000        3.13648000000000
C           65.97480899999999       -5.77669500000000        4.14505000000000
N           66.54535900000000       -5.47735500000000        5.34245300000000
C           67.06950100000000       -4.24843600000000        5.59531300000000
C           67.02988000000001       -3.25427000000000        4.61483200000000
C           67.70340299999999       -2.08394300000000        1.72074400000000
C           68.97152699999999       -2.78711500000000        1.95340600000000
C           69.92356100000001       -2.11814000000000        1.33501900000000
N           67.87125200000000       -1.02992500000000        0.98430400000000
C           69.26897400000000       -0.98335700000000        0.69710900000000
C           69.88393600000001       -0.00564200000000        0.01390300000000
C           69.13287600000000        1.09462000000000       -0.62574000000000
C           69.66536999999998        2.25204400000000       -0.99621300000000
C           68.63326200000000        2.99508300000000       -1.69451400000000
C           67.54224800000000        2.23778700000000       -1.70625900000000
N           67.76770500000001        1.00223500000000       -1.02991100000000
C           66.28953500000000        2.57871300000000       -2.42265700000000
C           66.35250200000000        3.56780200000000       -3.52695600000000
C           67.15948800000000        3.32263400000000       -4.64721500000000
C           67.22395100000000        4.27249100000000       -5.66939900000000
N           66.51369600000000        5.42785400000000       -5.57301100000000
C           65.72988800000000        5.69496600000000       -4.49465800000000
C           65.63747700000000        4.77263300000000       -3.44974500000000
C           65.11822500000000        1.99527300000000       -2.10246300000000
C           63.84330700000000        2.19605700000000       -2.78379400000000
C           62.95558100000000        1.48760800000000       -2.11613300000000
C           63.65246799999999        0.82405200000000       -1.00877600000000
N           64.91654800000001        1.11379200000000       -0.99739400000000
H           61.93413700000000       -1.68122500000000        2.13939000000000
H           63.73852300000000       -2.99413700000000        3.34932300000000
H           65.46542400000000       -5.05652800000000        2.18206200000000
H           65.56898400000000       -6.76491200000000        3.97481200000000
H           67.51817400000000       -4.04297900000000        6.55784500000000
H           67.45004800000000       -2.27722200000000        4.81983500000000
H           69.12094699999999       -3.69180300000000        2.52796300000000
H           70.97241800000000       -2.38317800000000        1.32317500000000
H           70.68714199999999        2.57276000000000       -0.84276200000000
H           68.74764399999998        3.96753500000000       -2.15570300000000
H           67.72868699999999        2.40470400000000       -4.72860000000000
H           67.84029099999999        4.09126700000000       -6.53975400000000
H           65.18036800000000        6.62557600000000       -4.44658400000000
H           65.01983799999999        4.99549200000000       -2.58836700000000
H           63.63965000000000        2.79092000000000       -3.66440200000000
H           61.90585000000000        1.41631900000000       -2.36707400000000
238
 energy: -427.134413483607 gnorm: 0.655027395500 xtb: 6.5.1 (b24c23e)
Fe          28.24832668957213        0.00936138234137       -0.01401879150552
C           24.87646077765022       -0.09016629262195       -0.04411340050152
C           25.54476614263071       -1.26206371266399        0.01364307676702
C           24.88636364210548       -2.55875011528502        0.07183242986444
C           25.83427144415965       -3.48617919471567        0.17963406766510
C           27.13190303162171       -2.80545499924815        0.19274094124715
N           26.94923857215355       -1.40475249516734        0.08418688907059
C           28.33246538457575       -3.42576515372451        0.34828062501885
C           28.35963433458635       -4.90154571604784        0.49738598378144
C           28.56295758789426       -5.47959988221370        1.75476832876934
C           28.58927845094967       -6.86722293754737        1.86713525600376
N           28.41865159208352       -7.65159503912228        0.78092816945504
C           28.21828603980515       -7.11356309980281       -0.44158220186556
C           28.18341028332017       -5.73216576867235       -0.61485365366119
C           29.61016191049240       -2.71004716141483        0.38848885563167
C           30.89650444308710       -3.34397346877541        0.67537911406214
C           31.84061609375072       -2.40630477082292        0.59214678306827
N           29.75823463929222       -1.43046956633458        0.12732618745912
C           31.16165175899361       -1.17085836017771        0.23868198881481
C           31.73417631708887        0.01325746509658       -0.01569962281775
C           30.99208144922048        1.20446857404274       -0.37750500174855
C           31.53966780651117        2.30581659994334       -0.95160977454481
C           30.51149889334404        3.29189465573423       -1.06605459942423
C           29.37384527384249        2.75559038513761       -0.55614652014770
N           29.60419555955217        1.42561622199565       -0.11837708729262
C           28.10862713834552        3.49137246458214       -0.42798363373621
C           28.12608111619348        4.97807564909067       -0.47701897113841
C           27.46176553765853        5.67500659482229       -1.49527279876713
C           27.51099717997142        7.06693755295066       -1.51183076228483
N           28.19115101905962        7.74614755766352       -0.56299563428570
C           28.84345118185098        7.09595921319761        0.42441623240912
C           28.83029446626580        5.70496933818140        0.49106877933480
C           26.93156746197968        2.84631295605811       -0.25031038846675
C           25.62630238243528        3.46528822648152       -0.06181152674366
C           24.75168005371552        2.46283914346059        0.03293092398371
C           25.49777369822935        1.21587423117151       -0.08192434027597
N           26.78322894121496        1.43479934341165       -0.24408027220701
H           23.79264709488477       -0.12824892280620       -0.04388053384769
H           23.82260699691074       -2.75438198208931        0.04689235992044
H           25.64355669395136       -4.54791226127179        0.25705346111007
H           28.69880847366264       -4.85659465989228        2.63305786051161
H           28.74917511434530       -7.32771992243473        2.84094204039194
H           28.08247024412024       -7.76981304040443       -1.30006269508378
H           28.02228849861143       -5.30817514621682       -1.60089605602827
H           31.07941056869886       -4.37988634076448        0.91091939172978
H           32.89791257622688       -2.57028183072619        0.74539498855909
H           32.57199590859585        2.41881681679363       -1.24064289337851
H           30.61648828773971        4.28997150620100       -1.46268384165300
H           26.92043108717411        5.13962476746977       -2.26819210136038
H           26.99713618620295        7.61659779680124       -2.29937290189072
H           29.38548133967488        7.66850958854754        1.17612783732957
H           29.35636669798388        5.19308826153051        1.29034380583461
H           25.38075406350304        4.51699678214960       -0.00077790124894
H           23.68905572436608        2.57224724999163        0.17919932963882
Fe          86.32553372166267       -0.00482697965284       -0.01157377279225
C           89.69669016265719        0.08165109291898       -0.06960686589775
C           89.02847294940295        1.21969332165398       -0.35483027483605
C           89.68679499071749        2.47721422993570       -0.67638645373395
C           88.73883534036794        3.39591775742388       -0.84284831845378
C           87.44119567310669        2.74831944219726       -0.63262070802849
N           87.62389183158803        1.37661924418367       -0.32929812740292
C           86.24052661805966        3.38708270148742       -0.66425076497608
C           86.21352281597535        4.84255317932484       -0.95028923937720
C           86.01017357733528        5.76121898233094        0.08466185462028
C           85.98383539733945        7.12155589540131       -0.21126548538920
N           86.15448836693965        7.55624748137101       -1.47860028966298
C           86.35483379202597        6.68601408410763       -2.49186894049913
C           86.38971876083426        5.31390845819625       -2.25602344976028
C           84.96290703738616        2.71393802420748       -0.41759137749380
C           83.67667444008202        3.40404778002674       -0.32704618469707
C           82.73244354467110        2.48279732663068       -0.13447870398079
N           84.81400787163740        1.41350557894026       -0.29439975314640
C           83.41071710051227        1.19793135544195       -0.11284358677247
C           82.83339293356566       -0.00862551877325       -0.01323657358411
C           83.58041524590000       -1.25428155453179       -0.01183264775441
C           83.03326113117794       -2.47468115211279       -0.24099985269660
C           84.06196888075907       -3.45166726340773       -0.06419399589976
C           85.19890989829671       -2.79026114804496        0.26784186203599
N           84.96774651450470       -1.38986852643690        0.29918467178400
C           86.46467014498026       -3.45689001907583        0.60429361221274
C           86.44708239939179       -4.89357572140720        0.98978188875355
C           87.11135908025381       -5.85644609292647        0.21804463506225
C           87.06211570382087       -7.19308294594376        0.60687486076184
N           86.38198782359903       -7.56709844897560        1.71219741408948
C           85.72966417095553       -6.65792776752391        2.46791930640532
C           85.74282473524666       -5.30765173312125        2.12730519737860
C           87.64147293473131       -2.78808249612565        0.58673344706134
C           88.94687654635912       -3.32544898193301        0.94715070619437
C           89.82143729176727       -2.33882754238137        0.74635116573822
C           89.07526101935291       -1.17903354832628        0.27395394417825
N           87.78997719521816       -1.43552095937478        0.18231217389890
H           90.78049109048482        0.11805919847606       -0.08052980490693
H           90.75053171747628        2.65715812532878       -0.75716277761478
H           88.92956860135489        4.43430905222530       -1.07748154536483
H           85.87432188465175        5.42045706008603        1.10613024812808
H           85.82395262176821        7.84528092214203        0.58659062343601
H           86.49065814893382        7.06432901860706       -3.50406613082460
H           86.55084425001422        4.62156489922700       -3.07621921450714
H           83.49374132287245        4.46365898174050       -0.40300794755862
H           81.67522363529071        2.68409041626103       -0.03528716728306
H           82.00107550566028       -2.66691937216007       -0.48495154325801
H           83.95671346409425       -4.52183052017578       -0.15351789920624
H           87.65269919514448       -5.56892495087044       -0.67714875694333
H           87.57599116700101       -7.94796474776118        0.01315853146931
H           85.18764776390744       -6.98719362206172        3.35362383439580
H           85.21676271092082       -4.58549634100221        2.74321763969493
H           89.19238598334054       -4.31398748883084        1.31129183068012
H           90.88406895181674       -2.40091879203293        0.91810372601427
C           34.56000343787058        0.01409140636368       -0.00431101050067
C           35.91460287269904       -0.00595977651272       -0.02153490679868
C           37.16732872222044       -0.02843971304440       -0.02343563535750
C           38.46092389505396       -0.04060718174383       -0.02551217393482
C           39.73482583886804       -0.03047044622894       -0.03039991927647
C           40.95278528204465       -0.01102001537126       -0.03690106534023
C           42.24247536866158        0.01407087754210       -0.02167843419781
C           43.43838392022106        0.01734523009506       -0.00440215695264
C           52.86942258478268        0.02090160901514       -0.01017404105943
C           54.19745986370624       -0.00577696879591       -0.02259003027646
C           55.43688319435485       -0.02839733583385       -0.02312413497004
C           56.73034488277695       -0.04066333290191       -0.02554712078386
C           58.00143771537088       -0.03051368899316       -0.03040545998153
C           59.21953933263978       -0.01098334564198       -0.03685625268653
C           60.50893983068892        0.01398534096183       -0.02168025805429
C           61.70471050773115        0.01724666487954       -0.00438930420775
C           71.13736531361566        0.02088712250844       -0.01025339249931
C           72.46280234372807       -0.00575658985836       -0.02260479660883
C           73.70446654982990       -0.02838206651693       -0.02312260504117
C           74.99584847605102       -0.04062815868066       -0.02553256735019
C           76.27215988384458       -0.03049219607465       -0.03036083007633
C           77.49061602039973       -0.01091522574351       -0.03666574677748
C           78.80615397025335        0.01332130020105       -0.02138375295762
C           80.01676850712062        0.01488017492900       -0.00314579968674
Fe          48.08140918918667        0.02655376494140       -0.05245129377468
C           44.74614050514065        0.00062918919458        0.00290183497974
C           45.38359412659535       -0.81103282082481        0.88410536253809
C           44.72234767740229       -1.62047037238993        1.89974202017538
C           45.66735585521003       -2.31195577628356        2.53296965412938
C           46.95458516090820       -1.96644708592326        1.93471535850318
N           46.77177115528766       -1.01108833146768        0.90439616199349
C           48.15215510089562       -2.49762682870126        2.31200368598630
C           48.17901738436225       -3.53516695067165        3.37233377881387
C           47.64975462441470       -4.81057207324326        3.13975149438863
C           47.71367716629940       -5.76700928942471        4.14995173172635
N           48.27903034985537       -5.47655276223923        5.34161580682301