310
 energy: -591.506485212937 gnorm: 2.205970648416 xtb: 6.5.1 (b24c23e)
C           66.77669800000000       -0.04437500000000       -0.17613100000000
C           67.50901300000000       -1.40947000000000        0.00169800000000
C           66.90893100000000       -2.64758800000000        0.02546700000000
C           67.93231900000001       -3.60043800000000        0.26791400000000
C           69.12198200000000       -2.90934900000000        0.39264700000000
N           68.85897500000000       -1.58048400000000        0.17344400000000
C           70.53911599999999       -3.52077200000000        0.75020300000000
C           70.57191700000000       -4.90757800000000        1.26603900000000
C           70.87330600000000       -5.97202800000000        0.40538800000000
C           70.89826700000000       -7.28217200000000        0.88622500000000
C           70.61691700000000       -7.52161600000000        2.23844000000000
N           70.64060900000000       -8.89641500000000        2.74981600000000
O           70.91005900000000       -9.80997200000000        1.95418900000000
O           70.38788700000001       -9.07653000000000        3.95136900000000
C           70.31253200000000       -6.46546600000000        3.10829000000000
C           70.29104900000000       -5.15961100000000        2.61551500000000
C           71.66997800000000       -2.77476800000000        0.63257700000000
C           72.96941800000000       -3.28703800000000        1.01763800000000
C           73.87230500000000       -2.33446100000000        0.81628700000000
N           71.86983200000000       -1.49327800000000        0.19360000000000
C           73.19853500000001       -1.16816200000000        0.28108700000000
C           73.86692700000000       -0.02635000000000       -0.03207700000000
C           73.09129600000000        1.21670600000000       -0.63930200000000
C           73.63138200000000        2.20530300000000       -1.43807900000000
C           72.60544500000000        3.14581000000000       -1.70597100000000
C           71.46624400000000        2.69986900000000       -1.07046600000000
N           71.75724599999998        1.49705600000000       -0.47194600000000
C           70.05812800000000        3.42642400000000       -1.04953500000000
C           70.03240200000000        4.88947100000000       -1.25812700000000
C           69.67087300000000        5.42043200000000       -2.50410600000000
C           69.65562799999998        6.80160300000000       -2.70526600000000
C           70.00863600000000        7.65193800000000       -1.64839800000000
N           69.99442400000000        9.10451500000000       -1.85299600000000
O           69.67987800000000        9.53226400000000       -2.97481600000000
O           70.29848800000001        9.83195600000000       -0.89463900000000
C           70.37531900000000        7.13302300000000       -0.39911700000000
C           70.38619599999998        5.74980000000000       -0.21060100000000
C           68.92963399999999        2.70732700000000       -0.81901400000000
C           67.60724999999999        3.30642100000000       -0.77380300000000
C           66.72003300000000        2.34296100000000       -0.54393000000000
C           67.44138800000000        1.10023200000000       -0.42118900000000
N           68.76343500000000        1.37128600000000       -0.58619800000000
H           65.69802000000000       -0.02944700000000       -0.07545000000000
H           65.85476199999999       -2.84122200000000       -0.10062700000000
H           67.80801200000001       -4.66809700000000        0.36556500000000
H           69.55499000000000       -0.83944100000000        0.14453800000000
H           71.09237400000001       -5.75989500000000       -0.63997600000000
H           71.13796600000001       -8.08874600000000        0.19905500000000
H           70.09306500000000       -6.63305800000000        4.15901400000000
H           70.05954600000000       -4.32250000000000        3.27237500000000
H           73.18034100000000       -4.26455500000000        1.41219400000000
H           74.92288099999999       -2.43486100000000        1.01947800000000
H           74.65346199999999        2.25364800000000       -1.78209100000000
H           72.69118300000000        4.04795700000000       -2.29227400000000
H           71.07455100000000        0.88766600000000       -0.02906300000000
H           69.39762100000000        4.73927300000000       -3.30866400000000
H           69.36784299999999        7.18685900000000       -3.67938700000000
H           70.65214400000001        7.77738400000000        0.43062500000000
H           70.66676400000000        5.32415600000000        0.75163100000000
H           67.37632499999999        4.34823000000000       -0.90173700000000
H           65.65553000000000        2.46283900000000       -0.45405400000000
C          117.49450399999999       -0.08482400000000       -0.16495800000000
C          116.76219000000000        1.17799000000000       -0.71305500000000
C          117.36227099999999        2.25275100000000       -1.32818900000000
C          116.33888300000000        3.19494100000000       -1.60922100000000
C          115.14922099999998        2.66587100000000       -1.14743500000000
N          115.41222699999999        1.41291300000000       -0.65344400000000
C          113.73208700000001        3.37413300000000       -1.15442500000000
C          113.69928499999999        4.82908000000000       -1.42358700000000
C          113.39789600000000        5.30082000000000       -2.70859100000000
C          113.37293600000000        6.67201000000000       -2.96843800000000
C          113.65428500000000        7.57160200000000       -1.93086600000000
N          113.63059299999999        9.01395500000000       -2.19769200000000
O          113.36114299999998        9.38957500000000       -3.34943800000000
O          113.88331500000000        9.78529400000000       -1.25896700000000
C          113.95867100000000        7.11170600000000       -0.64222900000000
C          113.98015400000000        5.73806900000000       -0.39482800000000
C          112.60122399999999        2.67353000000000       -0.87244500000000
C          111.30178499999998        3.31081700000000       -0.80493400000000
C          110.39889699999999        2.38995500000000       -0.48877200000000
N          112.40137099999998        1.34841800000000       -0.59138200000000
C          111.07266699999998        1.11430900000000       -0.34941600000000
C          110.40427599999998       -0.02635000000000       -0.03207700000000
C          111.17990600000000       -1.40484000000000        0.08486600000000
C          110.63982099999998       -2.66327600000000       -0.09319700000000
C          111.66575800000000       -3.60793500000000        0.15966400000000
C          112.80495800000000       -2.89901700000000        0.47615400000000
N          112.51395599999999       -1.55953300000000        0.37239700000000
C          114.21307399999999       -3.51180800000000        0.86706200000000
C          114.23880100000000       -4.87447500000000        1.43903700000000
C          114.60032900000000       -5.96971700000000        0.64227500000000
C          114.61557400000000       -7.25830200000000        1.17860100000000
C          114.26256600000001       -7.44556900000000        2.52209400000000
N          114.27677799999999       -8.79719900000000        3.09212200000000
O          114.59132499999998       -9.74013400000000        2.34893500000000
O          113.97271400000000       -8.92956400000000        4.28798800000000
C          113.89588299999998       -6.35896900000000        3.32787200000000
C          113.88500700000000       -5.07511300000000        2.77964100000000
C          115.34156900000001       -2.77634700000000        0.69578000000000
C          116.66395300000001       -3.26728500000000        1.04209800000000
C          117.55116900000000       -2.32244300000000        0.74482700000000
C          116.82981399999998       -1.19292200000000        0.21226500000000
N          115.50776799999998       -1.51024200000000        0.20978700000000
H          118.57318299999999       -0.04595500000000       -0.07089000000000
H          118.41643999999998        2.35420400000000       -1.53579600000000
H          116.46319099999998        4.16133800000000       -2.07345300000000
H          114.71621200000000        0.76210700000000       -0.29786900000000
H          113.17882800000000        4.58217600000000       -3.49683900000000
H          113.13323600000000        7.01148800000000       -3.97219000000000
H          114.17813799999999        7.79487700000000        0.17348300000000
H          114.21165700000000        5.35682600000000        0.59858600000000
H          111.09086199999999        4.35225500000000       -0.96808900000000
H          109.34832200000000        2.58041900000000       -0.36592800000000
H          109.61774100000000       -2.88134900000000       -0.36361500000000
H          111.58001899999999       -4.68311500000000        0.11957200000000
H          113.19665199999999       -0.80921600000000        0.43967800000000
H          114.87358199999998       -5.79812600000000       -0.39784300000000
H          114.90335899999998       -8.08895300000000        0.54035900000000
H          113.61905899999998       -6.48605300000000        4.37071600000000
H          113.60443900000000       -4.21590400000000        3.38694900000000
H          116.89487699999998       -4.22704200000000        1.46707100000000
H          118.61567300000000       -2.37919000000000        0.88349400000000
C           75.71639000000000       -0.02635000000000       -0.03207700000000
C           76.93830800000001       -0.02635000000000       -0.03207700000000
C           86.25522500000000       -0.02635000000000       -0.03207700000000
C           87.47714299999998       -0.02635000000000       -0.03207700000000
C           96.79406000000000       -0.02635000000000       -0.03207700000000
C           98.01597699999999       -0.02635000000000       -0.03207700000000
C          107.33289399999998       -0.02635000000000       -0.03207700000000
C          108.55481199999998       -0.02635000000000       -0.03207700000000
C           78.01710599999998        0.01903000000000        0.02316700000000
C           78.81280900000000        1.25471900000000       -0.56726900000000
C           78.31304100000000        2.51731700000000       -0.81268100000000
C           79.35201100000000        3.27409300000000       -1.41288800000000
C           80.45444200000000        2.45104400000000       -1.50976000000000
N           80.13911500000000        1.25167800000000       -0.92247500000000
C           81.84073800000000        2.81050800000000       -2.18186100000000
C           81.82820300000000        3.79922800000000       -3.28218400000000
C           82.26576399999999        5.11231600000000       -3.05885700000000
C           82.24342499999999        6.04959500000000       -4.09302900000000
C           81.77527300000000        5.66465700000000       -5.35687100000000
N           81.74877900000000        6.64495500000000       -6.44793900000000
O           81.34392500000000        6.27025800000000       -7.55955200000000
O           82.13177800000000        7.79987100000000       -6.20332200000000
C           81.33134799999999        4.35620600000000       -5.59167700000000
C           81.35915700000000        3.42799800000000       -4.54918600000000
C           82.97756800000001        2.18389400000000       -1.78163500000000
C           84.26286599999999        2.43510400000000       -2.40085700000000
C           85.17223799999999        1.67429000000000       -1.80121000000000
N           83.18777700000000        1.24436400000000       -0.81177300000000
C           84.51199500000000        0.89920900000000       -0.77052700000000
C           85.17641300000000        0.01903000000000        0.02316700000000
C           84.38065800000000       -0.79863100000000        1.12171700000000
C           84.88015900000001       -1.28232200000000        2.31364800000000
C           83.84121000000000       -2.01737400000000        2.94032600000000
C           82.73905300000000       -1.95434000000000        2.11362600000000
N           83.05452299999999       -1.14709800000000        1.04984900000000
C           81.35284200000000       -2.68329200000000        2.33651600000000
C           81.36542300000001       -3.95376900000000        3.09420500000000
C           81.83341399999999       -5.12549600000000        2.48499300000000
C           81.86120999999999       -6.32757400000000        3.19446600000000
C           81.41837800000000       -6.34954900000000        4.52400400000000
N           81.44491099999999       -7.60933100000000        5.27523400000000
O           81.06354999999999       -7.59193900000000        6.45617600000000
O           81.84816400000000       -8.62802800000000        4.69246900000000
C           80.95128500000000       -5.18356500000000        5.14604900000000
C           80.92888300000000       -3.98791300000000        4.42604300000000
C           80.21599999999999       -2.16966400000000        1.79895300000000
C           78.93070000000000       -2.82568700000000        1.92603400000000
C           78.02130999999999       -2.09048200000000        1.29527200000000
C           78.68155100000000       -0.92961900000000        0.73359600000000
N           80.00578199999998       -1.03673500000000        1.06423100000000
H           77.30817999999998        2.85206400000000       -0.60381300000000
H           79.29479199999999        4.29685700000000       -1.75323000000000
H           80.79578400000000        0.49890300000000       -0.73772200000000
H           82.62746500000000        5.38718100000000       -2.06913800000000
H           82.59194300000000        7.05913600000000       -3.89402400000000
H           80.96438400000000        4.04112700000000       -6.56453100000000
H           81.01863499999999        2.40609500000000       -4.70916100000000
H           84.45918000000000        3.11153300000000       -3.21298200000000
H           86.21646900000000        1.64879000000000       -2.05455500000000
H           85.88482500000001       -1.14138400000000        2.68272400000000
H           83.89825399999998       -2.54817000000000        3.87849400000000
H           82.39796300000000       -0.82102700000000        0.34655700000000
H           82.17309299999999       -5.08535700000000        1.45114700000000
H           82.22733400000000       -7.22148500000000        2.69721500000000
H           80.60364100000000       -5.18302700000000        6.17530900000000
H           80.56795200000001       -3.06970400000000        4.88708000000000
H           78.73438600000000       -3.75302800000000        2.43311600000000
H           76.97706399999998       -2.33410600000000        1.22145700000000
C           88.55594100000000        0.01903000000000        0.02316700000000
C           89.35164399999999        1.25471900000000       -0.56726900000000
C           88.85187600000000        2.51731700000000       -0.81268100000000
C           89.89084500000000        3.27409300000000       -1.41288800000000
C           90.99327599999999        2.45104400000000       -1.50976000000000
N           90.67794899999998        1.25167800000000       -0.92247500000000
C           92.37957299999999        2.81050800000000       -2.18186100000000
C           92.36703700000000        3.79922800000000       -3.28218400000000
C           92.80459900000000        5.11231600000000       -3.05885700000000
C           92.78225999999999        6.04959500000000       -4.09302900000000
C           92.31410800000000        5.66465700000000       -5.35687100000000
N           92.28761299999999        6.64495500000000       -6.44793900000000
O           91.88275899999999        6.27025800000000       -7.55955200000000
O           92.67061300000000        7.79987100000000       -6.20332200000000
C           91.87018300000000        4.35620600000000       -5.59167700000000
C           91.89799100000000        3.42799800000000       -4.54918600000000
C           93.51640300000000        2.18389400000000       -1.78163500000000
C           94.80170099999998        2.43510400000000       -2.40085700000000
C           95.71107300000000        1.67429000000000       -1.80121000000000
N           93.72661199999999        1.24436400000000       -0.81177300000000
C           95.05082999999999        0.89920900000000       -0.77052700000000
C           95.71524700000001        0.01903000000000        0.02316700000000
C           94.91949200000001       -0.79863100000000        1.12171700000000
C           95.41899400000000       -1.28232200000000        2.31364800000000
C           94.38004500000000       -2.01737400000000        2.94032600000000
C           93.27788800000000       -1.95434000000000        2.11362600000000
N           93.59335700000000       -1.14709800000000        1.04984900000000
C           91.89167700000000       -2.68329200000000        2.33651600000000
C           91.90425700000000       -3.95376900000000        3.09420500000000
C           92.37224899999998       -5.12549600000000        2.48499300000000
C           92.40004499999999       -6.32757400000000        3.19446600000000
C           91.95721300000000       -6.34954900000000        4.52400400000000
N           91.98374599999998       -7.60933100000000        5.27523400000000
O           91.60238499999998       -7.59193900000000        6.45617600000000
O           92.38699800000001       -8.62802800000000        4.69246900000000
C           91.49012000000000       -5.18356500000000        5.14604900000000
C           91.46771800000000       -3.98791300000000        4.42604300000000
C           90.75483500000000       -2.16966400000000        1.79895300000000
C           89.46953499999999       -2.82568700000000        1.92603400000000
C           88.56014500000001       -2.09048200000000        1.29527200000000
C           89.22038499999998       -0.92961900000000        0.73359600000000
N           90.54461600000000       -1.03673500000000        1.06423100000000
H           87.84701500000000        2.85206400000000       -0.60381300000000
H           89.83362600000000        4.29685700000000       -1.75323000000000
H           91.33461900000000        0.49890300000000       -0.73772200000000
H           93.16630000000001        5.38718100000000       -2.06913800000000
H           93.13077699999999        7.05913600000000       -3.89402400000000
H           91.50321900000000        4.04112700000000       -6.56453100000000
H           91.55746899999998        2.40609500000000       -4.70916100000000
H           94.99801399999998        3.11153300000000       -3.21298200000000
H           96.75530400000000        1.64879000000000       -2.05455500000000
H           96.42365899999999       -1.14138400000000        2.68272400000000
H           94.43708900000000       -2.54817000000000        3.87849400000000
H           92.93679700000000       -0.82102700000000        0.34655700000000
H           92.71192700000000       -5.08535700000000        1.45114700000000
H           92.76616799999999       -7.22148500000000        2.69721500000000
H           91.14247599999999       -5.18302700000000        6.17530900000000
H           91.10678700000000       -3.06970400000000        4.88708000000000
H           89.27322100000001       -3.75302800000000        2.43311600000000
H           87.51589899999999       -2.33410600000000        1.22145700000000
C           99.09477500000000        0.01903000000000        0.02316700000000
C           99.89047800000000        1.25471900000000       -0.56726900000000
C           99.39071099999998        2.51731700000000       -0.81268100000000
C          100.42968000000000        3.27409300000000       -1.41288800000000
C          101.53211100000000        2.45104400000000       -1.50976000000000
N          101.21678399999999        1.25167800000000       -0.92247500000000
C          102.91840700000000        2.81050800000000       -2.18186100000000
C          102.90587200000000        3.79922800000000       -3.28218400000000
C          103.34343300000000        5.11231600000000       -3.05885700000000
C          103.32109500000000        6.04959500000000       -4.09302900000000
C          102.85294199999998        5.66465700000000       -5.35687100000000
N          102.82644800000000        6.64495500000000       -6.44793900000000
O          102.42159400000000        6.27025800000000       -7.55955200000000
O          103.20944700000000        7.79987100000000       -6.20332200000000
C          102.40901700000001        4.35620600000000       -5.59167700000000
C          102.43682600000000        3.42799800000000       -4.54918600000000
C          104.05523699999999        2.18389400000000       -1.78163500000000
C          105.34053499999999        2.43510400000000       -2.40085700000000
C          106.24990800000000        1.67429000000000       -1.80121000000000
N          104.26544599999998        1.24436400000000       -0.81177300000000
C          105.58966499999998        0.89920900000000       -0.77052700000000
C          106.25408200000000        0.01903000000000        0.02316700000000
C          105.45832700000000       -0.79863100000000        1.12171700000000
C          105.95782899999999       -1.28232200000000        2.31364800000000
C          104.91887899999999       -2.01737400000000        2.94032600000000
C          103.81672199999998       -1.95434000000000        2.11362600000000
N          104.13219200000000       -1.14709800000000        1.04984900000000
C          102.43051100000000       -2.68329200000000        2.33651600000000
C          102.44309199999999       -3.95376900000000        3.09420500000000
C          102.91108299999999       -5.12549600000000        2.48499300000000
C          102.93887999999998       -6.32757400000000        3.19446600000000
C          102.49604700000000       -6.34954900000000        4.52400400000000
N          102.52258099999999       -7.60933100000000        5.27523400000000
O          102.14121999999999       -7.59193900000000        6.45617600000000
O          102.92583300000000       -8.62802800000000        4.69246900000000
C          102.02895500000000       -5.18356500000000        5.14604900000000
C          102.00655200000000       -3.98791300000000        4.42604300000000
C          101.29367000000001       -2.16966400000000        1.79895300000000
C          100.00836900000000       -2.82568700000000        1.92603400000000
C           99.09897900000000       -2.09048200000000        1.29527200000000
C           99.75921999999998       -0.92961900000000        0.73359600000000
N          101.08345100000000       -1.03673500000000        1.06423100000000
H           98.38585000000000        2.85206400000000       -0.60381300000000
H          100.37246100000000        4.29685700000000       -1.75323000000000
H          101.87345399999998        0.49890300000000       -0.73772200000000
H          103.70513500000000        5.38718100000000       -2.06913800000000
H          103.66961200000000        7.05913600000000       -3.89402400000000
H          102.04205399999999        4.04112700000000       -6.56453100000000
H          102.09630400000000        2.40609500000000       -4.70916100000000
H          105.53684899999999        3.11153300000000       -3.21298200000000
H          107.29413800000000        1.64879000000000       -2.05455500000000
H          106.96249399999999       -1.14138400000000        2.68272400000000
H          104.97592400000001       -2.54817000000000        3.87849400000000
H          103.47563200000000       -0.82102700000000        0.34655700000000
H          103.25076199999999       -5.08535700000000        1.45114700000000
H          103.30500300000000       -7.22148500000000        2.69721500000000
H          101.68130999999998       -5.18302700000000        6.17530900000000
H          101.64562100000001       -3.06970400000000        4.88708000000000
H           99.81205600000000       -3.75302800000000        2.43311600000000
H           98.05473399999998       -2.33410600000000        1.22145700000000
310
 energy: -592.290913407230 gnorm: 0.752584008744 xtb: 6.5.1 (b24c23e)
C           66.78797854251181       -0.06291886580623       -0.17356825289454
C           67.50475772947189       -1.39695335266183       -0.00029373360004
C           66.91102905584293       -2.65139323198633        0.02733152408629
C           67.92932283533854       -3.59904192407491        0.26889945051112
C           69.13422127716200       -2.91255323242602        0.39485466939279
N           68.85924259252694       -1.58025394812692        0.17432568849303
C           70.52147224357991       -3.51057801750670        0.74503608459040
C           70.56923178848896       -4.90576791893610        1.26450798514712
C           70.87325698307230       -5.97232296550351        0.40710028735446
C           70.89811377602419       -7.28042571791551        0.88697901452940
C           70.61691862475982       -7.52279966679928        2.23886336068925
N           70.64054675436005       -8.89959087965258        2.75095964202609
O           70.90756424225131       -9.80124060193502        1.96158638181656
O           70.39027141803885       -9.07465517380437        3.94004336021791
C           70.31296305910953       -6.46458061396404        3.10663325762556
C           70.29103933143499       -5.16100399807214        2.61434108342262
C           71.67287676537863       -2.77108906768333        0.63194708779229
C           72.97051024347844       -3.29116889746415        1.01933666395728
C           73.87665811474523       -2.33570799028822        0.81700998290017
N           71.86770749260791       -1.48706977351506        0.19284632609720
C           73.20031266676310       -1.16970707363937        0.28285450831472
C           73.87890695121433       -0.01124747997832       -0.04349174419009
C           73.10002550409780        1.20540020246197       -0.63448508524150
C           73.63048597137561        2.20850131846436       -1.43753000140306
C           72.60826270868964        3.14484393215132       -1.70440099709015
C           71.45464225107074        2.70354656058153       -1.06955389755035
N           71.75859209181674        1.49661907894527       -0.47089367449114
C           70.07551906737081        3.41565628474055       -1.04889787304293
C           70.03528468666347        4.88716005532152       -1.25894691964256
C           69.67078167164679        5.42153708228801       -2.50280858314854
C           69.65581473244048        6.80037545215386       -2.70380960032356
C           70.00862972829680        7.65322993809604       -1.64859880908746
N           69.99445334775599        9.10777304750687       -1.85352208934391
O           69.68278992013835        9.52810599632521       -2.96427444226220
O           70.29566424366394        9.82497918423704       -0.90354309065458
C           70.37480302900610        7.13142630271816       -0.40008114947933
C           70.38632154325867        5.75057884160919       -0.21227342397781
C           68.92680526294595        2.70439353508876       -0.81750715098623
C           67.60590286509024        3.31109361058179       -0.77457572645079
C           66.71633077464158        2.34545921746415       -0.54395759653024
C           67.44455699069955        1.10301314914659       -0.42112739683805
N           68.76872788390175        1.36750717030706       -0.58562827542040
H           65.70198211547188       -0.03319944268599       -0.07602030738048
H           65.85580040359065       -2.84221677888730       -0.10043051564065
H           67.80742047796912       -4.66747278824907        0.36539793375755
H           69.55451575337145       -0.84011424226570        0.14468104714882
H           71.09198901859179       -5.76085725003850       -0.63848390819504
H           71.13750917279809       -8.08883715000594        0.20088492876747
H           70.09352105458272       -6.63431043444781        4.15766734461997
H           70.05973865401698       -4.32420855494409        3.27180675504842
H           73.17919549335450       -4.26716210582838        1.41293776053132
H           74.92538331169095       -2.43338533818591        1.01930200084040
H           74.65281261919431        2.25435595334431       -1.78201025488044
H           72.69184912858397        4.04722353834197       -2.29189041542059
H           71.07552480678132        0.88823288859378       -0.02930299547112
H           69.39806806411630        4.74082697880032       -3.30784402654608
H           69.36841157964194        7.18779636718189       -3.67786575203529
H           70.65156881465077        7.77784094810193        0.42888548836886
H           70.66650678448998        5.32536518355999        0.75034658753435
H           67.37734772646580        4.35105172316642       -0.90237244172984
H           65.65332627929483        2.46229531528343       -0.45381519308861
C          117.48319965375076       -0.06752388717770       -0.17231003518536
C          116.76644478203167        1.16614015292717       -0.70829185882591
C          117.36015355347476        2.25705033850367       -1.32855985093277
C          116.34196684407772        3.19423571136695       -1.60765462683970
C          115.13684417540389        2.66976963882146       -1.14717995993003
N          115.41194411593331        1.41315062176956       -0.65258433449974
C          113.74994863488644        3.36274017214470       -1.15362554230939
C          113.70198212173509        4.82673089002610       -1.42399473460420
C          113.39793627705453        5.30196134351930       -2.70727737931700
C          113.37308296935075        6.67089783492015       -2.96690359715858
C          113.65428292577978        7.57283889859442       -1.93111758985597