242
 energy: -438.500544172503 gnorm: 0.000357073367 xtb: 6.5.1 (b24c23e)
Co          50.76007017534952        0.03600933903541        0.05985686782078
C           47.39215758354592        0.03877394606632        0.20587176833324
C           48.04505259272725        1.24904359993748        0.10628642602439
C           47.38237581835996        2.51455223712343        0.01951193471225
C           48.34227925340178        3.46364240957379        0.12474873615508
C           49.58835344748648        2.77520821460995        0.29644200970328
N           49.40283020991802        1.41937268875111        0.21028590626601
C           50.78432572470772        3.39297006192024        0.64032341474687
C           50.79859767734912        4.85108016816799        0.89055514228669
C           49.98608974529111        5.40949000952412        1.88029503662911
C           50.00350129585767        6.77155910948957        2.12055341822027
C           50.83438469831548        7.60577226613757        1.36673573241451
C           50.85306446465717        9.00838205499587        1.60957233317354
N           50.86817326347855       10.14191622054814        1.80708847500960
C           51.64743315166783        7.05235841178080        0.37313087564365
C           51.62968667692896        5.68866092651020        0.14257685227794
C           51.96538305482882        2.67699415283725        0.77159793520366
C           53.20780545387868        3.24139949199239        1.20607463771626
C           54.15237101629764        2.28494973027536        1.03552129615353
N           52.13909846993029        1.36250660539361        0.40456122447789
C           53.48363381138002        1.13987094277974        0.50400899771521
C           54.14986361912870        0.01416433648173        0.01238073948205
C           53.45721519528221       -1.09303572981363       -0.48541835906613
C           54.09561520921525       -2.22773146642893       -1.07316195547252
C           53.12958385935649       -3.15687771117970       -1.27203399081900
C           51.90683404684199       -2.59160922013846       -0.78529213011433
N           52.11132788048983       -1.29529060985141       -0.36990463206827
C           50.72458281353166       -3.29995317446325       -0.63025238553377
C           50.70328642452814       -4.74550377128906       -0.94448316522571
C           49.82318434419772       -5.24741374424913       -1.90636838520045
C           49.80309442917483       -6.59739442001023       -2.20697561393294
C           50.66320892668826       -7.47639997575550       -1.54205288415928
C           50.64411167962508       -8.86685852987629       -1.84684901033493
N           50.63014785948780       -9.99083325328728       -2.09300273301307
C           51.54245765907152       -6.98000292029809       -0.57505865786893
C           51.56160261545784       -5.62793379180518       -0.28397503647693
C           49.56016473624622       -2.69076531351928       -0.17787316792194
C           48.33184096084432       -3.38427254317211        0.07905045431697
C           47.39307257860535       -2.44001192976075        0.32452222677676
C           48.04993050070373       -1.17235758562909        0.22301763954680
N           49.39080389156384       -1.34009825655553       -0.01982529158220
H           46.31001278047183        0.03917915919819        0.26074046142580
H           46.31830538315651        2.63990700170263       -0.10209967004782
H           48.22997196168475        4.53529475684387        0.09520910559995
H           49.35091320599584        4.76442347117164        2.47675515608751
H           49.37531834997596        7.19654691061517        2.89460357577723
H           52.29032460850438        7.69643833012520       -0.21528451342525
H           52.25305221849103        5.26454125465596       -0.63647047018626
H           53.32998486342296        4.24038075118619        1.59177367639154
H           55.21022426424285        2.33763536494988        1.23656344808003
H           55.14861818186353       -2.29065348975957       -1.29562842641345
H           53.22611875369213       -4.13922817260957       -1.70478838873957
H           49.16344930475635       -4.56717935222845       -2.43302313851270
H           49.12243360112808       -6.97826950998023       -2.95933649217487
H           52.20728182171344       -7.65915754569993       -0.05435024458275
H           52.23540912287895       -5.24896304427163        0.47612427340686
H           48.21685347578596       -4.45602322424510        0.06965893616497
H           46.34538454281595       -2.56935257307451        0.54440892244615
Co          90.91966898940841        0.00883910247667        0.08372900020169
C           94.28910189330888        0.01910088665228        0.23486080500587
C           93.63820663704385       -1.19538109855667        0.19996021903462
C           94.30470642398546       -2.46177356797314        0.18314004312524
C           93.34669428705732       -3.40720601102791        0.32755738936621
C           92.09704256386189       -2.71528580026299        0.45383923860031
N           92.27992412948402       -1.36399888858600        0.30201274825497
C           90.90061264503890       -3.32069190827006        0.81268749100335
C           90.88739469862944       -4.76662380718058        1.12765540797164
C           91.68513694888846       -5.27618444691128        2.15496242199030
C           91.66792435019696       -6.62590945440414        2.45703133888301
C           90.85186143954100       -7.49677743797246        1.72889618446445
C           90.83243704410886       -8.88648569761050        2.03678019838328
N           90.81702491774267      -10.00959970941031        2.28678800640251
C           90.05393455384818       -6.99243939105683        0.69758257063413
C           90.07156672268947       -5.64062260705288        0.40510519212454
C           89.71650617205631       -2.60283340406680        0.90285767404902
C           88.47359616074102       -3.15353206552739        1.35295836251542
C           87.52785438499359       -2.20619181873137        1.14470027110819
N           89.54229380769290       -1.30421139987095        0.48521128040147
C           88.19540009140226       -1.07965939726612        0.57333450266453
C           87.52865236752579        0.02613785951592        0.04581523304826
C           88.21633787499306        1.11247224522057       -0.49586346223722
C           87.57362176831893        2.22187638528660       -1.12579817547330
C           88.53875674500649        3.13869499408248       -1.37726474302565
C           89.76605143950559        2.59359989557823       -0.87938754186426
N           89.56533556894905        1.31819848928848       -0.40342933203347
C           90.95088522888187        3.30725327239807       -0.77411483938974
C           90.97103876970294        4.73472716011562       -1.16386934021808
C           91.83655532409048        5.18138553146406       -2.16533853780666
C           91.85650983557827        6.51355929432498       -2.53704778811455
C           91.01083779856096        7.43016762047171       -1.90515919642894
C           91.02946861763797        8.80242758492870       -2.28332750568106
N           91.04525029231695        9.91200623094878       -2.58792560822782
C           90.14639159680722        6.98928139064595       -0.89870453189521
C           90.12741545324384        5.65449715034795       -0.53638837241018
C           92.11765156768540        2.72157702158723       -0.30102342519718
C           93.34721883150742        3.42787408000876       -0.08853012944663
C           94.28630376975086        2.49921326842409        0.20836572171565
C           93.62950651667998        1.22773245970941        0.18094109116706
N           92.28792860814409        1.38108312186225       -0.06817783214825
H           95.37101966206038        0.02350112575832        0.29280326362737
H           95.37013453436641       -2.58960087408034        0.07674231648965
H           93.46202792093642       -4.47866262291151        0.35303698127577
H           92.30864167971401       -4.60215010675181        2.73139336393273
H           92.28439408419561       -7.01273166275773        3.25999955860459
H           89.42273285340876       -7.66518561506616        0.12888252446307
H           89.45950145768583       -5.25476145287408       -0.40228985417020
H           88.35228954298367       -4.13806775571692        1.77445293044466
H           86.46950440235781       -2.25340744662883        1.34448518871622
H           86.51830262851742        2.27680810113286       -1.33925266151778
H           88.43901321145084        4.10089429887988       -1.85248413821803
H           92.48528758010630        4.47140306569959       -2.66579332972005
H           92.52575732618402        6.85130349155348       -3.31965101662821
H           89.49298368185370        7.69795285992927       -0.40347266976756
H           89.46498859418674        5.31909128883545        0.25359458384682
H           93.46206771586563        4.49732751193088       -0.15983290881929
H           95.33459338639597        2.64055407346911        0.41785907938642
C           56.77472633462678       -0.00678652596422       -0.00240611803683
C           55.55199832196827        0.00144022182817        0.00453793193280
C           58.12249214916820       -0.01189841034200       -0.01091173992033
C           59.34546858418144       -0.01525391154549       -0.01844169193497
C           70.15958852938248        0.01523252905600        0.01642456000883
C           68.93654055731352        0.01100790411886        0.00986485054626
C           71.50720697232289        0.02027964850491        0.01982962804963
C           72.73017791101213        0.02706640637931        0.01918359598940
C           83.54925685658874        0.05330228734650        0.03391568163169
C           82.32805086196299        0.05903846522782        0.02571897470898
C           84.90076060759277        0.04599483416361        0.04048586152679
C           86.12173242894218        0.03842902714173        0.04367897808487
Co          64.14096869982764       -0.00639567755111        0.00119301377483
C           60.74670685523559       -0.01026883333978       -0.02568465284195
C           61.43270869208736       -1.21616377835652       -0.20075245523273
C           60.78672882668541       -2.48248997149804       -0.33588447204360
C           61.74544189425404       -3.36976583802100       -0.69893765760530
C           62.97087280429959       -2.63614405417761       -0.79210482146924
N           62.77598066642604       -1.32663906334297       -0.42195812859101
C           64.15405051331265       -3.14769827575641       -1.30896390256458
C           64.15814579304205       -4.51718881145121       -1.86836150270091
C           63.30984789718267       -4.85136706099862       -2.92680583159428
C           63.31391676014624       -6.12930465199754       -3.45601674807407
C           64.16572086920210       -7.10394987627508       -2.92780780127222
C           64.17070283374601       -8.42118339944516       -3.46802859198278
N           64.17567281625935       -9.48556764409484       -3.90512098506613
C           65.01288955538938       -6.77587823725452       -1.86519110564411
C           65.00921229603564       -5.49396189006559       -1.34568736368794
C           65.33307692682486       -2.41527438503160       -1.31080964605371
C           66.56922333962703       -2.87705894673941       -1.86620577832588
C           67.52230100180070       -1.99213163937675       -1.48468237343498
N           65.51565185180566       -1.21365817360185       -0.66624653254680
C           66.86164212220919       -0.98762501898522       -0.71360578836208
C           67.53528842419456        0.00984565850455       -0.00189407918941
C           66.84796528914521        1.00992850489208        0.69310197009595
C           67.49251815646784        2.02165813502311        1.46792713591922
C           66.53308449760534        2.91482649827191        1.81385213271048
C           65.30893627978909        2.44734755198343        1.23786562853736
N           65.50520474484320        1.24230455750846        0.60547933076634
C           64.12694666336328        3.17533083870731        1.20981699382299
C           64.12115069316519        4.55239492169979        1.75014581230155
C           63.26371109811942        4.89892869547957        2.79721579264032
C           63.26043837193458        6.18403701067299        3.30873977667120
C           64.11445055848434        7.15334657307658        2.77432210370601
C           64.11112565232069        8.47778923052903        3.29662502157052
N           64.10825827404250        9.54778639460906        3.71985888773944
C           64.97180978108106        6.81250583366667        1.72396950765577
C           64.97529431009330        5.52357829102938        1.22210700897495
C           62.95014073791611        2.64728582423864        0.69632722956126
C           61.71643717985145        3.36720089987453        0.60162626285356
C           60.76373486596217        2.46432309341293        0.26327062122889
C           61.42227618726918        1.20320940894288        0.13818728477224
N           62.76738656731304        1.33216820086917        0.33691935736311
H           59.73387461902515       -2.65294709147431       -0.17896851357935
H           61.64229848499946       -4.42581449107631       -0.88796500390974
H           62.65676254688815       -4.09483838483993       -3.34688436977066
H           62.65838638220987       -6.37924705962654       -4.28194500135703
H           65.67109381786219       -7.53017127845328       -1.45026459445779
H           65.65839625942667       -5.24674092395364       -0.51336137832047
H           66.68332237421299       -3.76570413346167       -2.46522101113630
H           68.57989827215017       -2.00761562813766       -1.69299115335407
H           68.54474520085979        2.03686498007656        1.70189101390368
H           66.63513143783160        3.81050342135859        2.40456593849470
H           62.60943463700957        4.14660999424497        3.22296509084371
H           62.59757487971809        6.44371152515519        4.12577550449087
H           65.63241863536942        7.56232416831683        1.30479045889965
H           65.63288195045403        5.26598072857731        0.39958399978297
H           61.60354285481880        4.42458233044991        0.77691524490128
H           59.70751287688908        2.62126310868876        0.11528132058625
Co          77.52716789705291        0.05159933016729        0.00532000139181
C           74.13180869503832        0.03492372465596        0.01408653786470
C           74.81798219542398       -1.16690090080216       -0.18325900595490
C           74.17040452491335       -2.43104108015840       -0.33483152719811
C           75.12918931362665       -3.31615036619311       -0.70091396131229
C           76.35672661977097       -2.58363415172001       -0.78168366285313
N           76.16243625801634       -1.27745563984636       -0.39614198297592
C           77.53941433196313       -3.09338052593164       -1.29770023427755
C           77.54439113297111       -4.46043558331637       -1.86357053818312
C           76.69978728040039       -4.78908600414562       -2.92666163302034
C           76.70298786605409       -6.06520168348830       -3.46026302540200
C           77.55073034982560       -7.04349213461331       -2.93226663665825
C           77.55392138806398       -8.35894446482362       -3.47670875228990
N           77.55642831105757       -9.42237497090829       -3.91621960067721
C           78.39517034408200       -6.72064998242807       -1.86586104238219
C           78.39205158750512       -5.44058959023349       -1.34176187575960
C           78.71916148540747       -2.36047836737619       -1.29508619095632
C           79.95390199555756       -2.81902829487417       -1.85594873967913
C           80.90710269469488       -1.93378660267171       -1.47576720368860
N           78.90200101941875       -1.16355049648153       -0.64452376697401
C           80.24858707041616       -0.93268147059656       -0.69844964043128
C           80.92219661719938        0.05976932738573        0.01626661989391
C           80.23816160552755        1.05499393439863        0.71660201799818
C           80.88583967415776        2.06763654066660        1.48803581385173
C           79.92741191555250        2.95841524040940        1.84136980334903
C           78.69977787805284        2.48897406212576        1.27410541270108
N           78.89209972678509        1.28429805991374        0.64165173469866
C           77.51577890544209        3.21540423832576        1.26185181103098
C           77.51423065999593        4.59176798935320        1.80464141301281
C           76.66981697045537        4.93552544017130        2.86308920325669
C           76.66843748167943        6.22087628053599        3.37410637568803
C           77.51158158276081        7.19316341149037        2.82798454503214
C           77.50970594863826        8.51807481123727        3.34898890993506
N           77.50759001115739        9.58893269949626        3.77011076080164
C           78.35659097412986        6.85488439247878        1.76681095869941
C           78.35799534877128        5.56582584013552        1.26531538679265
C           76.33539874095683        2.68778815241510        0.75922427190683
C           75.09876864619794        3.40548114163806        0.68205051070937
C           74.14550822058668        2.50405546514320        0.34259151707439
C           74.80587343813137        1.24561274648788        0.19889011014772
N           76.15152814694811        1.37439740615276        0.39232868517668
H           73.11652881425023       -2.60118155980466       -0.18451713327302
H           75.02516127583409       -4.37009842972938       -0.90083823782619
H           76.04981156289912       -4.02974088015234       -3.34651771025397
H           76.04987536582790       -6.31094593239972       -4.28937211501709
H           79.05057130511841       -7.47766075518494       -1.45143745675917
H           79.03913518123360       -5.19748286692216       -0.50659695168516
H           80.06661641378538       -3.70539644171171       -2.45860525824686
H           81.96381170926610       -1.94680545230788       -1.68865522762501
H           81.93982255698502        2.08493413020410        1.71376942553214
H           80.03181489829639        3.85429157556611        2.43136535167550
H           76.02386278596575        4.18102081900613        3.29761282746264
H           76.01536198122790        6.47849293146569        4.19963915738207
H           79.00890728144977        7.60696441977741        1.33877128573708
H           79.00576945426438        5.31029295800302        0.43440079855096
H           74.98499863605396        4.46100369318787        0.86778561754829
H           73.08787587498303        2.66000674988650        0.20372939767165
