211
 energy: -339.019003257130 gnorm: 0.000726648557 xtb: 6.5.1 (b24c23e)
Ni          30.98801867552256        0.09769462475059       -0.25297488252068
C           27.65306242162281        0.28544631666747       -0.83248592298243
C           28.28058551219292        1.39472327379784       -0.30394602664507
C           27.59007708101257        2.59254936614110        0.06469311242077
C           28.52163812277235        3.44151428601144        0.55861970957879
C           29.78674595441950        2.77475982378248        0.45721603672075
N           29.62274826801048        1.50604323367005       -0.04205152720943
C           31.00383767500772        3.37083742299767        0.75984005212515
C           32.21864125018275        2.72064475198865        0.58752290396153
C           33.48902651199300        3.36173742232100        0.74207519403275
C           34.43393630377869        2.42934088145811        0.47144657586671
N           32.38551371388922        1.40614335632914        0.21558562013958
C           33.73951303248466        1.21863358671216        0.16862326746876
C           34.38902744241400        0.00060170044599       -0.04874788743076
C           33.69728389728607       -1.19817839735302       -0.24331879874139
C           34.34573235392541       -2.46668024325521       -0.34303115847981
C           33.37089722951880       -3.38746641151521       -0.53531554419580
C           32.12962848964803       -2.67495761193688       -0.57036424444420
C           30.91656831610371       -3.26619784719201       -0.89511673703943
C           30.88795312021137       -4.73165226614278       -1.13065811725808
C           30.62659731354685       -5.23678935139761       -2.40143518644526
C           30.60896758449438       -6.61114576788847       -2.62537384313657
C           30.31793487004128       -7.14146015978515       -4.00337265775623
C           30.85175328394817       -7.47669418845037       -1.56553974667073
C           31.11638875249723       -6.98549939609952       -0.28854849359561
C           31.38330058424373       -7.94167828705126        0.84243688668327
C           31.13538921836764       -5.61253295983993       -0.07761143404266
C           29.74514688937327       -2.53721858912430       -1.05254807914499
C           28.49648065580980       -3.10713828947641       -1.46601627043257
C           27.59345989041170       -2.09910764367009       -1.49073183866228
C           28.28240013411446       -0.92056775186345       -1.06124228246363
N           29.60396600049530       -1.19322344830638       -0.81084313952586
N           32.34245783065459       -1.32913339737654       -0.37159487109680
C           31.01847716648387        4.77517363520139        1.23773745301393
C           30.54668813814038        5.80375157285566        0.42266960566816
C           30.56510097383318        7.12073274615394        0.86704959643798
C           30.07695471075416        8.23297351980273       -0.02141187431527
C           31.05951340832426        7.40560643987733        2.13723574638229
C           31.53659306910550        6.39098241728765        2.96037042737166
C           32.05335291953226        6.70321330002110        4.33880680591528
C           31.51512375033169        5.07653318703034        2.50424444787342
H           26.58998679630078        0.35030570847167       -1.03345456280086
H           26.52624505405092        2.73959848416443       -0.03389223061210
H           28.37841793335771        4.43363904556374        0.95485272166117
H           33.62850522016836        4.39690273663669        1.00768443191401
H           35.50690641007098        2.53368229217586        0.48259636665204
H           35.41082824775174       -2.61719635998359       -0.27080655095019
H           33.47378681445778       -4.45228388825495       -0.66618025217779
H           30.45426627216002       -4.55193813318663       -3.22449588017226
H           30.54643146964011       -8.20500392909147       -4.06970810573314
H           29.26178664944066       -7.00010475276423       -4.24263481976911
H           30.90612205673895       -6.60786156642425       -4.75119034296271
H           30.83854961219083       -8.54884710484812       -1.73271915341418
H           31.54166354047502       -7.40629015308223        1.77832709348829
H           30.54150752549440       -8.62472608816803        0.96881742018056
H           32.27150669374939       -8.53931910919373        0.62894452352359
H           31.33197511628192       -5.21583215867922        0.91237789640511
H           28.34266007919835       -4.14768651209909       -1.70136645279989
H           26.54730074681628       -2.13495023808560       -1.75026740762709
H           30.18016397678799        5.57101929856549       -0.57112843810813
H           29.52388463044926        8.97407425762109        0.55665402555172
H           29.43125470115967        7.84707493399792       -0.81019994860823
H           30.92652391227365        8.73521813446860       -0.48955438616088
H           31.07455129232673        8.43266982059160        2.48734704548818
H           31.26148883825621        6.55116192962504        5.07577267257542
H           32.38580832364505        7.73921446661712        4.40487977287828
H           32.88556060960624        6.04780484968159        4.59727585688549
H           31.87501919573659        4.27533615463051        3.14046222649797
Ni          57.82801142176071        0.17877137626829       -0.15000840054861
C           61.16404096735465        0.67377756331355       -0.50692099072903
C           60.52698782765422       -0.12647791394134       -1.43254306961414
C           61.20942802503298       -0.79835596195211       -2.49578593136779
C           60.27589256965160       -1.51443105834464       -3.16492573840146
C           59.01698096518692       -1.25077673403712       -2.53143956566239
N           59.18660129644294       -0.41930702219211       -1.45176998667342
C           57.80110292625379       -1.73707455742366       -2.99288338052685
C           56.58998255113208       -1.41286293319731       -2.39582735752975
C           55.31751888791464       -1.78104783327945       -2.93917121515352
C           54.37508919701298       -1.25799903741027       -2.11917093179318
N           56.42682063639803       -0.66509227193431       -1.25238161788927
C           55.07290638244380       -0.58418888567721       -1.07056687474945
C           54.42686870230457        0.01185018155685        0.01371985747323
C           55.11772711651268        0.58573472656282        1.08222673696502
C           54.46832022971502        1.09161144276876        2.24971929063445
C           55.44477257859143        1.54229555162703        3.07284162247540
C           56.68844968088352        1.32653727175803        2.39679912528249
C           57.90962109290805        1.77314252998652        2.88261349065476
C           57.94091500915574        2.42283435528577        4.21712603776757
C           58.24308977366503        3.77664262399174        4.33639060446321
C           58.26221788026675        4.38856022345723        5.58720366890711
C           58.59593515165476        5.85171740697601        5.69971027909368
C           57.98056383116748        3.63300308967711        6.71907230501525
C           57.67546961538556        2.27722464479393        6.61501621650034
C           57.36597622780829        1.48073461060668        7.85374213602267
C           57.65447594959545        1.67843447916237        5.36167605966892
C           59.08685900787957        1.67793458534579        2.15298923442068
C           60.34567251751103        2.20358855160341        2.59388115591156
C           61.24611891818630        1.93511574660923        1.61975411374894
C           60.54510971818396        1.21623202788357        0.59993693361539
N           59.22070189102642        1.07095888121204        0.92877405101205
N           56.47517351574592        0.72813899186667        1.17590305322834
C           57.78087919683435       -2.59564955485968       -4.20265014214975
C           58.21695013859421       -2.09672417941930       -5.42980279588660
C           58.18913976304204       -2.89626619999927       -6.56656813328524
C           58.63875917200353       -2.35033816349149       -7.89492074454016
C           57.71995195783421       -4.20377106270122       -6.47010517739574
C           57.27873723178352       -4.71457879261163       -5.25400615423750
C           56.78705148243085       -6.13326499553079       -5.15270729750170
C           57.31111270116634       -3.90503772250931       -4.12265531852549
H           62.22710428679371        0.84559209386805       -0.62988258906219
H           62.27017757955360       -0.73230840475631       -2.67893002427958
H           60.41419960043009       -2.16458328351048       -4.01343297019383
H           55.17457973043994       -2.35123527655987       -3.84244706352612
H           53.30181955854472       -1.32053299031344       -2.19902041797262
H           53.40158559305495        1.09014993990961        2.40574002387437
H           55.34273255195202        2.00094318183517        4.04277684943655
H           58.44639767749422        4.36009110893697        3.44509747540549
H           58.37339903133618        6.22822647496424        6.69794505913952
H           59.65805973309325        6.00920343946884        5.50041982445248
H           58.02784149435695        6.43101255309639        4.97053280524450
H           57.99453141856829        4.10328501575111        7.69698429584183
H           57.20420512543324        0.43019135074077        7.61322710419717
H           58.18808926662235        1.55354111173024        8.56777421073906
H           56.46689686687161        1.86921537004423        8.33602049077836
H           57.42606346875199        0.62262719826318        5.26577821613445
H           60.50661897468604        2.71009118525104        3.53162753445123
H           62.29729089512357        2.17389641101794        1.58622872023023
H           58.56230674016518       -1.07080708175153       -5.49597448469266
H           59.19195445775361       -3.10505243475705       -8.45497090239320
H           59.27321955207002       -1.47410718561259       -7.76183488143662
H           57.77071256586456       -2.05726112485892       -8.48971420125882
H           57.69614100503606       -4.83015527627261       -7.35595082436192
H           57.59406278841896       -6.78283547910489       -4.80627706921439
H           56.44807503016688       -6.49826905590259       -6.12226529756992
H           55.96482456037891       -6.20708924661685       -4.44030545886283
H           56.97961228735063       -4.29527825053782       -3.16659248487406
C           37.01484875794102       -0.05212059743950       -0.01181012119414
C           35.79368245489822       -0.02721458899785       -0.02298226669615
C           38.36457771918436       -0.06858817117649        0.00960384734624
C           39.58593741018641       -0.07771624656876        0.02501691293950
C           50.44609482844595       -0.03174951302318        0.08993724920864
C           49.22578180531790       -0.05047182951571        0.08709462246583
C           51.79869511393060       -0.01912457191004        0.07536020190203
C           53.01872061835014       -0.00839793853827        0.05157349958067
Ni          44.40468105957510       -0.07036461790969        0.03673836244107
C           40.99062103955213       -0.07832633624658        0.03264055739958
C           41.66003433011526        1.14845080242185        0.06276304378190
C           40.98720317699022        2.40656656522482        0.12317259108163
C           41.93954780360805        3.36273504347675       -0.00026084129588
C           43.19081220504847        2.68329382598063       -0.14158808418481
N           43.01104555655191        1.32092480962561       -0.05983939968866
C           44.39614162470731        3.32629163631942       -0.38758923285941
C           45.60709587506454        2.65077106812705       -0.45288234294533
C           46.85863735310049        3.28331152652423       -0.73849928829490
C           47.81673980272835        2.33564886156649       -0.59808671551510
N           45.79283828323626        1.31299181039112       -0.18787564715693
C           47.14692916590255        1.12563963288723       -0.24150962963749
C           47.81770380636259       -0.05742832182323        0.07534114058651
C           47.14849942889768       -1.24760789141153        0.36711154524699
C           47.81967026477928       -2.45884154396611        0.71686042535630
C           46.86739481488974       -3.41852175890529        0.80714056264761
C           45.61756426579393       -2.79027563754301        0.50480443498478
C           44.41295582620647       -3.47354967814333        0.40516792140615
C           44.41870290149106       -4.94891719077833        0.55819495428122
C           43.72073170497304       -5.55007110966468        1.60397998327656
C           43.72300690913445       -6.93347405063105        1.75116198265423
C           42.98887715065325       -7.57334227208722        2.89841398264652
C           44.42569835399370       -7.71469195730412        0.83938296986131
C           45.12420659879628       -7.12895517598138       -0.21288036897192
C           45.88969719201447       -7.98624401498277       -1.18433142589084
C           45.12120049343000       -5.74504014720425       -0.34572103348159
C           43.20397574668922       -2.83304100356511        0.17054408366709
C           41.95534561556202       -3.51575634958314        0.02024174115103
C           40.99766621015715       -2.56215216474574       -0.07971819189827
C           41.66480922504850       -1.30211483196678       -0.00168302565625
N           43.01689807254577       -1.47014504425995        0.11524162138995
N           45.79772758930149       -1.44553618560214        0.27452020607377
C           44.38875992101257        4.79577279534630       -0.58910631135449
C           45.07184844507129        5.63158808044452        0.29184073007826
C           45.06345060355629        7.01072319517529        0.10642990919308
C           45.81190009248405        7.90331848274362        1.05916952285086
C           44.37320599695168        7.54878825959943       -0.97456952836697
C           43.68759251324553        6.72612122109015       -1.86452696350644
C           42.96318084645485        7.32028291961692       -3.04207727557107
C           43.69598865411449        5.35047964277854       -1.66480774504982
H           39.92234429994334        2.52663384541275        0.24109379053741
H           41.81715430422102        4.43352069005426        0.00600000931476
H           46.97785622006885        4.31915646218460       -1.01117385441895
H           48.88336961076934        2.43154584577953       -0.72175180197996
H           48.88352694114066       -2.54742630398152        0.86740571913231
H           46.98899279242909       -4.45961376776265        1.05804494739651
H           43.18440314883376       -4.92971632011701        2.31367563913338
H           42.68839182722558       -8.59111640605718        2.64903898429365
H           43.63764949091621       -7.61538145750562        3.77633537215456
H           42.10155616692442       -6.99675340827645        3.16084569859889
H           44.42685462304130       -8.79453594256758        0.94710292288147
H           46.04175074622708       -7.46400803274330       -2.12891938908977
H           45.35977414467727       -8.91939445513763       -1.37774450450920
H           46.86948862635708       -8.23339481516825       -0.76930547006697
H           45.65134154940448       -5.27678793725279       -1.16781238643355
H           41.83744495066594       -4.58673180215481       -0.00585329419906
H           39.93276032849764       -2.68493285476826       -0.19469457762936
H           45.59681980237348        5.20114640249806        1.13758738519231
H           45.43452973732580        8.92492121329608        1.01493380964087
H           46.87250402223287        7.91874517650764        0.79818528542427
H           45.72182590102997        7.53741167384252        2.08244740886659
H           44.36541379391766        8.62344703649280       -1.12516587208048
H           42.52389128717044        8.28344175359002       -2.78086267932165
H           42.17363400390450        6.65428037667182       -3.39021285697883
H           43.66277548880679        7.47965486366301       -3.86580629627771
H           43.17332218243106        4.69765142237466       -2.35529364422077
