233
 energy: -366.604342655022 gnorm: 0.000754130910 xtb: 6.5.1 (b24c23e)
Ni          30.42100654215639        0.03156495197491       -0.04101338577761
C           27.01922383269197        0.11068702668918       -0.11914533594032
C           27.68127977620163        1.20902780872221        0.38849770246199
C           27.01245699510986        2.37216868279555        0.88793291241727
C           27.97714678984139        3.23030595764564        1.29412156774248
C           29.23408974297366        2.59100995443617        1.03729058396281
N           29.04316875683242        1.34843605582822        0.48661021163737
C           30.45988600087649        3.18168747712053        1.30241985855294
C           30.47776097355959        4.55127278692112        1.89021912504154
C           30.45367743718505        5.67001274489587        1.05229901896340
C           30.41381336184790        5.48959716056798       -0.44181664278175
C           30.46564441667796        6.94214959886997        1.61178977899000
C           30.50061750119242        7.11603445424065        2.99171167285210
C           30.53129444737737        8.49952738313411        3.58300465185773
C           30.52789019336853        5.99554612145663        3.81536594142249
C           30.51677855849276        4.71366195140283        3.27788491966646
C           30.54495959959265        3.50511463140269        4.17512212491469
C           31.66933669850821        2.55962415356234        1.03741316874177
C           32.93847867491525        3.17127273694750        1.29030892268719
C           33.88370215202158        2.27700651939246        0.91444742837075
N           31.83506632287084        1.29917911803143        0.50898384450501
C           33.18955980197509        1.12270113196482        0.43699212091522
C           33.84377231338020       -0.02298431870160       -0.02283645619593
C           33.15832485853930       -1.15380999045400       -0.47378191774338
C           33.82022254194607       -2.33936910370839       -0.91934000892885
C           32.85061666240998       -3.21636811269791       -1.27325707980688
C           31.59905715236772       -2.55945516105496       -1.04766312768223
N           31.79960636482346       -1.29147252523514       -0.55008924210589
C           30.37331216532690       -3.14362668068074       -1.32364701908068
C           30.35089984409814       -4.52909383663582       -1.87278787739968
C           30.42137653780817       -4.73388011393791       -3.25420459450087
C           30.52427327062917       -3.55464166899338       -4.18440913752321
C           30.39464556729483       -6.02999207224527       -3.75387009074116
C           30.29994918061244       -7.12442058044456       -2.89910337747335
C           30.25499488594051       -8.51957208965161       -3.46141406128844
C           30.23160654643724       -6.90856678801580       -1.52737779820330
C           30.25655052183397       -5.62019446443880       -1.00494714399141
C           30.18117184497668       -5.39386500265080        0.48151108111364
C           29.16551130921527       -2.49464363216641       -1.11887060114331
C           27.89301651176745       -3.08059734719861       -1.42216569329632
C           26.95271505494380       -2.16504280167540       -1.09115957935036
C           27.65188388675314       -1.02365090368823       -0.58316539953454
N           29.00852734214581       -1.23061574340121       -0.60789213541325
H           25.93614830915827        0.13740483447360       -0.14788739007178
H           25.94139564352895        2.49506073125245        0.91641232403378
H           27.86798358004960        4.21090942417085        1.72873121461078
H           29.50037955152645        4.96899984146621       -0.73604573983942
H           31.26194869538609        4.88828501046413       -0.77423568942725
H           30.44592623679327        6.45228190929450       -0.95112569655584
H           30.44578290707352        7.81086794292889        0.96185065698070
H           30.10837538812090        8.50278142444628        4.58780369596531
H           31.56285246995164        8.85366403283277        3.64687411513726
H           29.97145314778858        9.19925848477209        2.96184935671862
H           30.55641607730550        6.12162993953731        4.89275092461380
H           31.42519192775847        2.89569818058041        3.96179490234938
H           30.56971648922919        3.79923943858331        5.22394874233138
H           29.66199023055633        2.88608850655505        4.00532012601147
H           33.07111612687262        4.15906277158306        1.70101380285791
H           34.95679296316265        2.37309499186917        0.95254639163248
H           34.89019775824455       -2.46799349808334       -0.94853387295177
H           32.95583532469316       -4.21891377492801       -1.65514797378097
H           29.66559114330822       -2.89327777855557       -4.05436285207482
H           30.56075376875268       -3.88047274602287       -5.22347709978257
H           31.42517844823049       -2.97782042331797       -3.96686997460117
H           30.44919443465118       -6.19031415788470       -4.82571352658953
H           30.99022562466936       -8.63731448691345       -4.25847380984294
H           30.45427016847095       -9.25974153271363       -2.68655452815611
H           29.26716483263286       -8.72051585265598       -3.88207745378032
H           30.15872274101278       -7.75539017946091       -0.85284582158730
H           29.27847044557380       -4.83364828909301        0.73317556384268
H           31.03993230372724       -4.81214521038135        0.82133151416409
H           30.16464970192216       -6.34131264296527        1.01931438258974
H           27.75768751217753       -4.06668986141253       -1.83652082881270
H           25.87974340135353       -2.23695063393118       -1.17264650212276
Ni          62.47301020180149       -0.00644448802056       -0.09014729360301
C           65.87348880945179       -0.00423640168310       -0.21363412418881
C           65.21225631311528       -1.15546035512983       -0.58788182488172
C           65.88109579025956       -2.34770392283461       -1.01321368703988
C           64.91615931020011       -3.24778180665103       -1.31472923301364
C           63.65899949667600       -2.60063886342584       -1.07951016454385
N           63.85019025720183       -1.32084924664375       -0.62199140333828
C           62.43311947287653       -3.19810784054368       -1.32872621733060
C           62.41401858937395       -4.59157014237328       -1.85724090111030
C           62.47738584421986       -4.81646810745437       -3.23542827889349
C           62.56093461768788       -3.65072707423652       -4.18443362003622
C           62.46352512612035       -6.12074747151648       -3.71552398246624
C           62.38819768514838       -7.20251790942346       -2.84411220765962
C           62.35588342238169       -8.60929812717639       -3.37752997091971
C           62.32173869018540       -6.96637051691677       -1.47485138251265
C           62.33378268237831       -5.67054212883915       -0.97227137633188
C           62.26239270633200       -5.42200390251456        0.51081837065551
C           61.22451405823615       -2.55352948835216       -1.11914799951689
C           59.95568659045729       -3.15054073548691       -1.40628631089400
C           59.01111466569512       -2.24391688898434       -1.05938648620557
N           61.05932331073165       -1.28705356313845       -0.60541030223923
C           59.70517029742821       -1.10022842277757       -0.55678114693913
C           59.05116741681417        0.02415525748924       -0.04671752895957
C           59.73722090271183        1.12778246556039        0.46640310375442
C           59.07715413658057        2.26788281968244        1.02015635646438
C           60.04743689847487        3.13907335958624        1.38658183293943
C           61.29751839512290        2.52893005377825        1.04904342628811
N           61.09568495626430        1.28491914853698        0.49477025103499
C           62.52179877492590        3.15215099900958        1.23010029080258
C           62.54465629046076        4.52425147613932        1.81177452793035
C           62.43900969991811        5.63873532041942        0.97387789321872
C           62.29834729336046        5.45032687791226       -0.51312417038459
C           62.46573821771993        6.91294582806077        1.52698633636459
C           62.59463901558799        7.09380045845468        2.90103631025361
C           62.63857576084201        8.48270212315469        3.47868749281701
C           62.69812741946676        5.97822310642166        3.72428391085729
C           62.67420817187188        4.69356212380586        3.19271605018391
C           62.78847825072248        3.49006373873758        4.08993422488068
C           63.72715707684731        2.56072278773183        0.88456537229280
C           64.99768266592324        3.20507949601605        1.04309072305716
C           65.93737438686985        2.32232669455476        0.63100074459392
C           65.23995956300999        1.13960730942508        0.22538546428363
N           63.88441101197765        1.29722147865316        0.37243348267234
H           66.95637375693124       -0.00166759770727       -0.25765767972136
H           66.95233401574349       -2.46054058144766       -1.06618539241766
H           65.02527556575006       -4.26006688053213       -1.66937113146131
H           63.48083823071625       -3.08827294325197       -4.01290907442508
H           61.72090246096950       -2.97187262981650       -4.02670968113634
H           62.54772161213154       -3.98992382357496       -5.21978705468874
H           62.51379834401445       -6.29575022576887       -4.78525869314748
H           62.78515265603977       -9.30751775837846       -2.65860769643844
H           61.32328021092902       -8.91064052415108       -3.56869727096200
H           62.90889246042354       -8.68224703691264       -4.31431798366233
H           62.26138656944590       -7.80418723752394       -0.78790115380168
H           61.37782963907694       -4.82988385721349        0.75309727315200
H           62.21525721049066       -6.36114406492543        1.06123847174498
H           63.13890737739932       -4.86346917484649        0.84456077882689
H           59.82278355013469       -4.13689211990527       -1.82036060282361
H           57.93838057164466       -2.32801150156708       -1.12562019960179
H           58.00779644050060        2.37188204112883        1.10913948500477
H           59.94348875736815        4.11099605274089        1.84110384721126
H           63.15116978191504        4.89442776866241       -0.90719720086331
H           62.24093797747523        6.41120298072008       -1.02358611174780
H           61.39548468014551        4.87977333637729       -0.73898055240364
H           62.38392698632131        7.77865394176517        0.87784705291978
H           61.88889571049896        9.11963270112332        3.00752014708979
H           62.45980017633897        8.46458427392887        4.55371920918774
H           63.61951208293237        8.92940144014031        3.30149343256246
H           62.79806300077155        6.10897620366515        4.79682471237019
H           63.69289309304123        2.92640648857606        3.85244378517922
H           61.93441835857759        2.82590904823782        3.94567915742396
H           62.82820085693518        3.78755401011338        5.13735382101555
H           65.13233146655436        4.20512909615284        1.42277885147227
H           67.00905471292380        2.43934981608394        0.60115694469636
C           39.04592580679772       -0.06820071415069       -0.02059594667231
C           37.81838797894069       -0.06363080396001       -0.02356080905660
C           36.47265920994697       -0.05435142112743       -0.02547961864419
C           35.24972090290753       -0.04110313621480       -0.02400012563425
C           40.39157544206137       -0.06988858594868       -0.01984311457380
C           41.61469192543689       -0.06749295744687       -0.01505553465040
C           55.07649819380084        0.05091932816416       -0.01855639348051
C           53.84904511635991        0.05019804327211       -0.01613661930293
C           52.50340024764856        0.03986901180598       -0.00758125145459
C           51.28032945730929        0.02718339890688       -0.00610346989163
C           56.42228767969230        0.05026094265045       -0.02595040772873
C           57.64516881652671        0.03767085519296       -0.03666817095098
Ni          46.44761027518836       -0.03636460424211       -0.00803356639367
C           43.02020529874910       -0.06216712648760       -0.01229658684368
C           43.68834495259048        0.16179808913212        1.19442483671214
C           43.00855140270681        0.38318737756017        2.43143416749559
C           43.96421058601847        0.50193068907423        3.38426594386576
C           45.22447442683696        0.35436620899405        2.72309020055324
N           45.04437281180757        0.15767474230555        1.37264497272727
C           46.44021885245965        0.37926691957794        3.38750534931694
C           46.43698006499785        0.55142942282189        4.86803544438618
C           46.51800128026768        1.83200850667105        5.42213446078232
C           46.60823242009333        3.03585033810654        4.52270142582130
C           46.51347392963326        1.97909060955283        6.80439819257689
C           46.42901106524670        0.87100451990027        7.64084549683625
C           46.44532350304056        1.03961319886266        9.13610366772278
C           46.34971181415731       -0.39877957628163        7.07774901624818
C           46.35209848037282       -0.56985075947946        5.69857746590379
C           46.26289181488833       -1.94651684367397        5.09593051277487
C           47.65917464828676        0.25285796602099        2.74079662134932
C           48.91707934896554        0.28274284016135        3.42202592524874
C           49.87701308949057        0.18405086349493        2.47122424505655
N           47.84507057473224        0.12274202412582        1.38310864538474
C           49.20205016500230        0.09194584926065        1.21535981157539
C           49.87484277683141        0.00921368715820       -0.00652476683902
C           49.20552917502537       -0.09390964154077       -1.22882410481305
C           49.88369366264460       -0.17203910591816       -2.48392230192124
C           48.92772943320230       -0.30464428160232       -3.43459533590759
C           47.66904230802752       -0.30782762593648       -2.75420099112881
N           47.85009492383096       -0.16458915987554       -1.39719484606580
C           46.45464130842407       -0.47164805018640       -3.40112976180971
C           46.45833563343915       -0.65824418462569       -4.87989085997869
C           46.33455136214165        0.45074614944836       -5.72197768010364
C           46.19647054774303        1.82964683418798       -5.13380526653731
C           46.33946039630182        0.26548375321265       -7.09932088685379
C           46.46417888900075       -1.00639946855623       -7.64927363543927
C           46.48784041988431       -1.18981340644015       -9.14268752978533
C           46.58734821975695       -2.10212211601360       -6.80142002104318
C           46.58555040070092       -1.94073190466129       -5.42076189586840
C           46.71877582352497       -3.13121324934370       -4.50896716390069
C           45.23745712215105       -0.46737841374870       -2.73895490752782
C           43.98135569143334       -0.64090689624327       -3.40175879966416
C           43.02137239607756       -0.52498380158292       -2.45292459410219
C           43.69453298374388       -0.28267538248485       -1.21623059654251
N           45.05084113381997       -0.26167151414461       -1.39071902906885
H           41.93716749750391        0.43368868641095        2.53993126761209
H           43.84355586238831        0.67214416810764        4.44182284047085
H           47.50863893165719        2.98215445668179        3.90771924375526
H           46.63810104679876        3.95590282764325        5.10555877798758
H           45.74806921130797        3.07357615870227        3.85171859325793
H           46.57502034715871        2.97330074555909        7.23474358781558
H           47.46878304026561        0.95314124642590        9.50850911271192
H           45.84341375441655        0.26981417866124        9.61982740032105
H           46.06173775080617        2.01930814129660        9.42161109334623
H           46.28334468699734       -1.26871077386502        7.72294424877163
H           45.36422413066585       -2.03344991963338        4.48219394479246
H           47.12481962542901       -2.13620323759617        4.45359045083624
H           46.23027623565270       -2.71005133922101        5.87250843641945
H           49.03339763585539        0.37179483121177        4.48996629758536
H           50.94826312853920        0.17503698561593        2.59179748282588
H           50.95424755277392       -0.13178812120793       -2.60418516712390
H           49.04727879827820       -0.39511072171575       -4.50205593550382
H           45.28932685878960        1.89431313197794       -4.52983342839433
H           46.14766025404830        2.58428784441266       -5.91818859766194
H           47.04549005245986        2.05237899036063       -4.48495899146149
H           46.24306958008108        1.12585583634143       -7.75348095979995
H           46.13685231066201       -2.18444848851824       -9.41832156732137
H           47.50840333480929       -1.07383913147178       -9.51503007246900
H           45.86169935636010       -0.44517514016750       -9.63494770656471
H           46.68466073236600       -3.09787665166529       -7.22146810321070
H           46.77163292487157       -4.05642938241668       -5.08194109304822
H           45.86580304085145       -3.18704331471624       -3.83017363349294
H           47.62231081386141       -3.04376553619766       -3.90244870504174
H           43.86612695645452       -0.82414541833928       -4.45774241864457
H           41.95110750626505       -0.59143011857527       -2.56384113792940
