219
 energy: -354.653925367133 gnorm: 1.512521842941 xtb: 6.5.1 (b24c23e)
Ni          24.94470100000000       -0.01754900000000       -0.01853200000000
C           21.58601200000000        0.18571200000000       -0.25384200000000
C           22.25033200000000        1.28654800000000        0.10763300000000
C           21.60068200000000        2.53003700000000        0.50507900000000
C           22.54339700000000        3.40587600000000        0.79523100000000
C           23.84911800000000        2.76510900000000        0.58791900000000
N           23.66995300000000        1.41655300000000        0.15484700000000
C           25.04429100000000        3.36061700000000        0.77419300000000
C           26.33960799999999        2.66915600000000        0.54637100000000
C           27.63637800000000        3.35579800000000        0.54726800000000
C           28.56956100000000        2.45283000000000        0.33020100000000
N           26.47247800000000        1.39490700000000        0.33442600000000
C           27.87593500000000        1.17782700000000        0.18690900000000
C           28.46752400000000       -0.01228400000000       -0.01207900000000
C           27.70895500000000       -1.27875900000000       -0.15318800000000
C           28.26614400000000       -2.48328400000000       -0.13687300000000
C           27.21890800000000       -3.44886700000000       -0.39684800000000
C           26.08474000000000       -2.77453500000000       -0.55165100000000
C           24.78278700000000       -3.39908500000000       -0.91028400000000
C           24.75772000000000       -4.84087900000000       -1.24484900000000
C           24.69124400000000       -5.25393100000000       -2.58310900000000
C           24.68660200000000       -6.61984000000000       -2.90261300000000
C           24.58082000000000       -7.05971100000000       -4.33294000000000
C           24.71440800000000       -7.57187800000000       -1.87165900000000
C           24.77147100000000       -7.16678600000000       -0.52981800000000
C           24.83821600000000       -8.19737300000000        0.55871300000000
C           24.80300900000000       -5.79839000000000       -0.22134700000000
C           23.62964200000000       -2.70468500000000       -0.92414200000000
C           22.30897200000000       -3.24512600000000       -1.24266400000000
C           21.45371799999999       -2.26062200000000       -1.05322700000000
C           22.21740100000000       -1.09268300000000       -0.61762100000000
N           23.48761900000000       -1.33967500000000       -0.53845400000000
N           26.30495900000000       -1.36932100000000       -0.40466800000000
C           25.09382300000000        4.77088200000000        1.21889300000000
C           24.77834000000000        5.80637300000000        0.32711300000000
C           24.82132500000000        7.14264900000000        0.75040000000000
C           24.50118100000000        8.25166400000000       -0.20814100000000
C           25.22196200000000        7.44075900000000        2.06142800000000
C           25.56299000000000        6.41220200000000        2.95247400000000
C           25.94532100000000        6.73297300000000        4.36713500000000
C           25.48187400000000        5.07731600000000        2.53045600000000
H           20.50306100000000        0.22269100000000       -0.27212100000000
H           20.53606800000000        2.71659000000000        0.56445500000000
H           22.35746400000000        4.41856200000000        1.12786100000000
H           27.81630200000000        4.41270700000000        0.69373100000000
H           29.63179900000000        2.65034400000000        0.27545900000000
H           29.31178300000000       -2.71474700000000        0.01331100000000
H           27.35447000000000       -4.51855300000000       -0.48329200000000
H           24.64715900000000       -4.51252300000000       -3.37291500000000
H           25.08331900000000       -8.03947300000000       -4.48049700000000
H           23.51049900000000       -7.15616600000000       -4.61046500000000
H           25.06534400000000       -6.32105600000000       -5.00707100000000
H           24.69327200000000       -8.62834200000000       -2.11315400000000
H           24.66965300000000       -7.74215300000000        1.55902900000000
H           24.05944700000000       -8.97230900000000        0.39523600000000
H           25.83739500000000       -8.68141200000000        0.54953700000000
H           24.85977600000000       -5.47467400000000        0.81207400000000
H           22.05512200000000       -4.24848100000000       -1.55776200000000
H           20.38211799999999       -2.32213400000000       -1.19039500000000
H           24.49431400000000        5.57086900000000       -0.69192100000000
H           24.01227800000000        9.09551800000000        0.32389100000000
H           23.80999000000000        7.89977600000000       -1.00308500000000
H           25.43846200000000        8.61533000000000       -0.67807700000000
H           25.26777800000000        8.47357500000000        2.38750600000000
H           25.03586000000000        6.74020300000000        5.00214700000000
H           26.43544899999999        7.72786000000000        4.42568500000000
H           26.65664400000000        5.97576600000000        4.76194700000000
H           25.72393700000000        4.27637200000000        3.21936900000000
Ni          63.87435000000000       -0.00462100000000       -0.00881900000000
C           67.23303900000001        0.16480900000000       -0.26954800000000
C           66.56871900000000       -0.48881200000000       -1.22625300000000
C           67.21836900000000       -1.21669000000000       -2.30996000000000
C           66.27565400000000       -1.73917600000000       -3.07041500000000
C           64.96993300000000       -1.36169200000000       -2.51268100000000
N           65.14909800000000       -0.57034800000000       -1.33797600000000
C           63.77476000000000       -1.70637100000000       -3.03280000000000
C           62.47944400000000       -1.29507600000000       -2.43208600000000
C           61.18267300000000       -1.48707400000000       -3.09133900000000
C           60.24949000000000       -1.02723300000000       -2.28448400000000
N           62.34657299999999       -0.73680400000000       -1.26719800000000
C           60.94311600000000       -0.53469000000000       -1.09976100000000
C           60.35152699999999       -0.01228400000000       -0.01207900000000
C           61.11009599999999        0.47578700000000        1.16506000000000
C           60.55290700000000        0.79541200000000        2.32651800000000
C           61.60014300000000        1.31389500000000        3.18157000000000
C           62.73431200000000        1.27487000000000        2.49080000000000
C           64.03626500000000        1.79318000000000        2.99083400000000
C           64.06133100000000        2.51586500000000        4.28251200000000
C           64.12780700000000        3.91620900000000        4.30671600000000
C           64.13244899999999        4.60330500000000        5.52970100000000
C           64.23823100000000        6.09954200000000        5.55403600000000
C           64.10464300000000        3.87810900000000        6.73109000000000
C           64.04758000000000        2.47654100000000        6.71552800000000
C           63.98083500000000        1.71791100000000        8.00838900000000
C           64.01604200000000        1.79935100000000        5.48708300000000
C           65.18940900000000        1.61319500000000        2.32002300000000
C           66.51007900000000        2.06956700000000        2.75043800000000
C           67.36533300000001        1.61356700000000        1.85757800000000
C           66.60165000000001        0.87006700000000        0.85705700000000
N           65.33143200000001        0.86278200000000        1.11632400000000
N           62.51409199999999        0.74253700000000        1.18204000000000
C           63.72522800000000       -2.52606000000000       -4.26353800000000
C           64.04071100000000       -1.95777000000000       -5.50634000000000
C           63.99772600000000       -2.73629700000000       -6.67197300000000
C           64.31787000000000       -2.12435000000000       -8.00397900000000
C           63.59708900000000       -4.07849000000000       -6.59336000000000
C           63.25606100000000       -4.64800600000000       -5.35742100000000
C           62.87373000000000       -6.09604500000000       -5.27172400000000
C           63.33717700000000       -3.87108500000000       -4.19276900000000
H           68.31598999999999        0.17207100000000       -0.31015300000000
H           68.28298300000000       -1.32565000000000       -2.47261100000000
H           66.46158699999999       -2.34055300000000       -3.95048200000000
H           61.00274900000000       -1.92195300000000       -4.06570500000000
H           59.18725199999999       -1.02963600000000       -2.48942900000000
H           59.50726800000000        0.71559500000000        2.59063900000000
H           61.46458100000000        1.69468400000000        4.18491500000000
H           64.17189200000000        4.46841800000000        3.37475900000000
H           63.73573200000000        6.51399700000000        6.45400000000000
H           65.30855200000001        6.39294800000000        5.56942600000000
H           63.75370700000000        6.54141500000000        4.65692200000000
H           64.12577899999999        4.40414000000000        7.67857500000000
H           64.14939800000001        0.63041500000000        7.84961200000000
H           64.75960499999999        2.09064000000000        8.70719000000000
H           62.98165599999999        1.86146300000000        8.47074300000000
H           63.95927500000000        0.71666500000000        5.46382800000000
H           66.76393000000000        2.65150800000000        3.62642400000000
H           68.43693300000000        1.76243700000000        1.87847600000000
H           64.32473700000000       -0.91345700000000       -5.56380600000000
H           64.80677300000001       -2.87025200000000       -8.66638200000000
H           65.00906200000000       -1.26287300000000       -7.88728200000000
H           63.38058899999999       -1.77421900000000       -8.48408400000000
H           63.55127299999999       -4.67917800000000       -7.49458600000000
H           63.78319100000000       -6.70797200000000       -5.10190500000000
H           62.38360200000000       -6.42922000000000       -6.21099100000000
H           62.16240700000000       -6.26447400000000       -4.43454400000000
H           63.09511400000000       -4.30981600000000       -3.23171300000000
C           30.88421300000000        0.00194100000000       -0.00212800000000
C           32.34244000000000       -0.01989500000000       -0.02000100000000
C           33.47636800000000       -0.04064900000000       -0.02149200000000
C           34.83775000000000       -0.05323900000000       -0.02368300000000
C           36.11196800000000       -0.04293200000000       -0.02844900000000
C           37.30043100000000       -0.02413400000000       -0.03460500000000
C           38.65279200000000        0.00065000000000       -0.01873700000000
C           39.75305900000000        0.00194100000000       -0.00212800000000
C           48.94587799999999        0.00194100000000       -0.00212800000000
C           50.40410400000000       -0.01989500000000       -0.02000100000000
C           51.53803199999999       -0.04064900000000       -0.02149200000000
C           52.89941399999999       -0.05323900000000       -0.02368300000000
C           54.17363300000000       -0.04293200000000       -0.02844900000000
C           55.36209499999999       -0.02413400000000       -0.03460500000000
C           56.71445600000000        0.00065000000000       -0.01873700000000
C           57.81472300000000        0.00194100000000       -0.00212800000000
Ni          44.30716100000000       -0.06943500000000       -0.03016200000000
C           40.93779899999999        0.02447200000000        0.02502700000000
C           41.59406800000000        1.19539200000000       -0.07363800000000
C           40.95410300000000        2.51243600000000       -0.08853900000000
C           41.89026600000000        3.42602300000000       -0.25011800000000
C           43.18670600000000        2.74759300000000       -0.35019100000000
N           43.00852600000000        1.33434800000000       -0.22908400000000
C           44.37075600000000        3.36751000000000       -0.54057700000000
C           45.66807799999999        2.64488900000000       -0.57576300000000
C           46.93705299999999        3.26207900000000       -0.98295800000000
C           47.88979100000000        2.36558500000000       -0.82816100000000
N           45.83604400000000        1.41728100000000       -0.19397300000000
C           47.23467800000000        1.16414100000000       -0.32722900000000
C           47.84961000000000        0.02447200000000        0.02502700000000
C           47.09843000000000       -1.15948100000000        0.49284900000000
C           47.63292900000000       -2.17189500000000        1.16367600000000
C           46.60051500000000       -3.17966200000000        1.31362800000000
C           45.50688600000000       -2.71505400000000        0.72002900000000
C           44.25391000000000       -3.48765000000000        0.54357900000000
C           44.31724400000000       -4.96721700000000        0.62958000000000
C           43.61957000000000       -5.65186300000000        1.63671500000000
C           43.69524800000000       -7.04896500000000        1.72911600000000
C           42.98517000000000       -7.76836800000000        2.83714500000000
C           44.50063000000000       -7.75943700000000        0.82636200000000
C           45.19583900000000       -7.08543400000000       -0.18853700000000
C           46.08038700000000       -7.84988900000000       -1.12837400000000
C           45.11296700000000       -5.68791200000000       -0.27307300000000
C           43.08200400000000       -2.87526400000000        0.28722100000000
C           41.80719400000000       -3.53512700000000        0.02493800000000
C           40.91893100000000       -2.57261500000000       -0.11796200000000
C           41.61550000000000       -1.29218000000000        0.04578100000000
N           42.87979099999999       -1.46216500000000        0.27963400000000
N           45.73091700000000       -1.41586000000000        0.17590600000000
C           44.40515299999999        4.83842900000000       -0.71357400000000
C           44.99252700000000        5.64721200000000        0.27008300000000
C           45.04098000000000        7.03942900000000        0.10829100000000
C           45.71273799999999        7.89454300000000        1.14185700000000
C           44.52223699999999        7.61849300000000       -1.05988400000000
C           43.92170200000000        6.81887000000000       -2.04400900000000
C           43.39985100000000        7.44152500000000       -3.30437700000000
C           43.87963700000000        5.42739600000000       -1.87358500000000
H           39.90010400000000        2.73206500000000        0.01619700000000
H           41.70497100000000        4.49175500000000       -0.28927700000000
H           47.08636500000000        4.27069600000000       -1.34552300000000
H           48.93939400000000        2.52077000000000       -1.03982000000000
H           48.65681900000000       -2.25504800000000        1.50323700000000
H           46.71699600000000       -4.14763200000000        1.78323500000000
H           43.02567699999999       -5.09529300000000        2.35243400000000
H           42.74631099999999       -8.81242800000000        2.54037700000000
H           43.63317700000000       -7.78750000000000        3.73812800000000
H           42.03227800000000       -7.25568200000000        3.08751100000000
H           44.58800400000000       -8.83629200000000        0.91390000000000
H           46.22923200000000       -7.29030900000000       -2.07706800000000
H           45.62343100000000       -8.83167500000000       -1.37728500000000
H           47.06840799999999       -8.01887400000000       -0.65014500000000
H           45.66615100000000       -5.15904600000000       -1.04039400000000
H           41.60456400000000       -4.59517300000000       -0.05194300000000
H           39.86950900000000       -2.72609000000000       -0.33001200000000
H           45.41335100000000        5.19087800000000        1.15874700000000
H           45.27934200000000        8.91735300000000        1.14813200000000
H           46.79744600000000        7.96252600000000        0.91615800000000
H           45.57940099999999        7.45991800000000        2.15527300000000
H           44.58562700000000        8.69073000000000       -1.20357300000000
H           42.97360799999999        8.44539300000000       -3.09398100000000
H           42.59867000000000        6.81504000000000       -3.75235000000000
H           44.22880100000000        7.54510700000000       -4.03564200000000
H           43.44395200000000        4.80038200000000       -2.64312300000000
219
 energy: -355.118777925676 gnorm: 0.580817486046 xtb: 6.5.1 (b24c23e)
Ni          24.94949160482975       -0.01258320460943       -0.02757201040638
C           21.58660014483610        0.17230000328770       -0.25812283475928
C           22.25723878292231        1.28723325244626        0.10868109025236
C           21.60020167836768        2.52455818684216        0.50304330066264
C           22.55149042484281        3.40730562949692        0.79571039966511
C           23.84812537970780        2.75778735074692        0.58682194909196
N           23.65948285679013        1.42412112757474        0.15991133244652
C           25.05691163221203        3.35776132667268        0.77254482421557
C           26.33269394074372        2.68064714660254        0.54974730084355
C           27.62568938480777        3.36241961682376        0.55017213095092
C           28.56961997206515        2.44655635547537        0.32859560264380
N           26.47716755480807        1.38731155389673        0.33255902441456
C           27.88352456182677        1.17418954069205        0.18579638984163
C           28.46683556141156       -0.02484039126421       -0.01329061277444
C           27.70698214702932       -1.26324653627755       -0.15460828956374
C           28.26742834693468       -2.50164428431376       -0.13915039293327
C           27.23659345818240       -3.45024665748353       -0.39525080301844
C           26.07343234784559       -2.76251379359685       -0.55335537702463
C           24.79469176050561       -3.39236564549011       -0.90690469375846
C           24.76183870018420       -4.84192611158283       -1.24471718023196
C           24.69150518541938       -5.25611802249184       -2.58027990178061
C           24.68477762223547       -6.61896380627237       -2.89938539264482
C           24.58223272322897       -7.06006623847329       -4.33452317841657
C           24.71469922766377       -7.56740918799665       -1.87075045755081
C           24.77219358189281       -7.16420280439261       -0.53161231011328
C           24.83728689498469       -8.19815550723072        0.56019442687097
C           24.80357983145271       -5.79960397127733       -0.22445938217724
C           23.62987097469773       -2.70151151030407       -0.92344269698258
C           22.31660107959273       -3.24491942579115       -1.24186200975062
C           21.44764486071956       -2.25067226574701       -1.05093872585548
C           22.20348852489393       -1.08385096747458       -0.61517108871527
N           23.49276948510738       -1.34326010298953       -0.53778857704339
N           26.30615324521412       -1.36980357609720       -0.40095767808306
C           25.09735109461192        4.77363430885737        1.21872243246938
C           24.77816952080083        5.80758134853566        0.33066965810122
C           24.82313724814677        7.14060143717740        0.75185459394177
C           24.49951398170383        8.25276436978832       -0.20879694719285
C           25.22172987993701        7.43666194723408        2.06017724760144
C           25.56043435979090        6.41165533651384        2.95029298383508
C           25.94725335934355        6.73334610129335        4.36827450777514
C           25.48227844342778        5.08034498113225        2.52827874460456
H           20.50348198929506        0.21972690065148       -0.27349034323904
H           20.53634333708652        2.71179900400885        0.56277577472071
H           22.36363987098824        4.41889559505475        1.12789518615723
H           27.81116545719129        4.41478257253536        0.69466317613645
H           29.63131028943497        2.64416406881907        0.27445460278091
H           29.31226488046656       -2.71755382038876        0.01306348476065
H           27.35723614741747       -4.51868682591227       -0.48236050902307
H           24.64771223077100       -4.51344697641386       -3.37170633333656
H           25.07981845339393       -8.03504259652772       -4.48015326706993
H           23.51635828848022       -7.15608129351695       -4.61047680106432
H           25.06189484778607       -6.32461686104769       -5.00432976314476
H           24.69349166680223       -8.62667990845724       -2.11283601468130
H           24.67111367369282       -7.74462320306246        1.55380867340457
H           24.06411474831730       -8.96960752054275        0.39647703913100
H           25.83181420746517       -8.67998720169082        0.55045594822904
H           24.85955314705741       -5.47522250345707        0.81065500336105
H           22.06115482657723       -4.24796459118440       -1.55720074864879
H           20.38041981620139       -2.31777419094633       -1.18949726638078
H           24.49451927498394        5.57097927560769       -0.69052525663157
H           24.01548949257521        9.09219435163945        0.32076968629644
H           23.81413096209049        7.90179340171741       -0.99992482564121
H           25.43298961092595        8.61454119575829       -0.67649524294223
H           25.26779170933115        8.47202147095451        2.38704035887654
H           25.04118749358626        6.74046515144494        5.00023002985045
H           26.43230249711319        7.72334964680144        4.42615655897056
H           26.65238445739782        5.97935053968192        4.76089152271074
H           25.72388219593624        4.27734579352813        3.21835014380009
Ni          63.86951645037033        0.00267730693884       -0.01609782623945
C           67.23245657636848        0.17266493236619       -0.25784284326557
C           66.56179131908776       -0.49001238929892       -1.22661798086035
C           67.21884620649283       -1.21320734325202       -2.30526158381442
C           66.26756199174733       -1.74003904901549       -3.07165988544553
C           64.97091356522817       -1.35861484557600       -2.50599831775662
N           65.15957799601803       -0.57730857101980       -1.34382754875425
C           63.76222477054817       -1.70401990193463       -3.03053723707048
C           62.48635055919213       -1.30151758694122       -2.44218672629254
C           61.19339022150117       -1.49168872937770       -3.09688714603281
C           60.24949264063839       -1.02393023650469       -2.27877297199713
N           62.34211240927745       -0.73291429003306       -1.26066399594879
C           60.93580621887982       -0.53252631268691       -1.09639438378077
C           60.35296489849560       -0.00822353164347       -0.00002661987619
C           61.11243229002921        0.47277077860393        1.14958577154217
C           60.55173119051786        0.80268291774836        2.34342463659240
C           61.58245870171739        1.31275228193877        3.18334820358314
C           62.74568149215785        1.27317798152570        2.47881261628323
C           64.02436343650987        1.78806289671653        2.98532849824940
C           64.05721956082910        2.51602497935678        4.28354998570559
C           64.12754273900967        3.91409657444629        4.30961110308833
C           64.13427117833481        4.59995094766449        5.52975495940406
C           64.23682055945063        6.10116297517662        5.55393884338469
C           64.10435185401543        3.87599462387567        6.72705443799154
C           64.04685701795825        2.47754581606765        6.71253912924435
C           63.98176298248388        1.71670799617383        8.00955581369404
C           64.01547600407595        1.80268657051514        5.48738329848462
C           65.18919174893348        1.61164245540031        2.31716993209423
C           66.50244595191845        2.06874213449850        2.75046369053936
C           67.37141113149401        1.60859381876779        1.84865008078472
C           66.61557670986342        0.86525004042404        0.84924510008912
N           65.32627503736735        0.86314099999986        1.11996940975063
N           62.51306615852203        0.73920252125322        1.18365919627886
C           63.72171557344883       -2.52666412269508       -4.26621967968923
C           64.04087663840690       -1.96153035771333       -5.50651128159155
C           63.99591403584131       -2.73712485849074       -6.66959238357234
C           64.31953560272083       -2.12402745292243       -8.00522100202238
C           63.59732077873841       -4.07615095816997       -6.58977754734467
C           63.25861462357540       -4.64574643488157       -5.35750075050291
C           62.87179989406160       -6.09724576174172       -5.27176721871909
C           63.33677642240756       -3.86983724542410       -4.19629232377659
H           68.31557508787832        0.17421444813269       -0.30768636705273
H           68.28271190025126       -1.32270382060500       -2.46847675992725
H           66.45541781824633       -2.34068327700812       -3.95079914961435
H           61.00789090731164       -1.92342524447578       -4.06745131644085
H           59.18787927042452       -1.02701520470975       -2.48392894768533
H           59.50687664580850        0.71662136099819        2.59329374702572
H           61.46180903528123        1.69383413171144        4.18531647232273
H           64.17133979143848        4.46751330687762        3.37598505403168
H           63.73923117599972        6.51243791838112        6.44984256392967
H           65.30269520645027        6.39293980616812        5.56934126822098
H           63.75715555879841        6.53977477291636        4.66110482906746
H           64.12555969786257        4.40337484221400        7.67707198937140
H           64.14793752364750        0.63611658967189        7.85053168965981
H           64.75493918154299        2.08869516434155        8.70494467613692
H           62.98723454183968        1.86018209751780        8.46963366891972
H           63.95949728181067        0.71818413882999        5.46395981571643
H           66.75789932723434        2.65082818505657        3.62608813148602
H           68.43863822697985        1.76036227594529        1.87453915263330
H           64.32453256547664       -0.91483220920625       -5.56352305995248
H           64.80356399614134       -2.86632936992273       -8.66406296256155
H           65.00492164452986       -1.26646994918908       -7.88834054540700
H           63.38606015611443       -1.77551632611887       -8.48288993526379
H           63.55125930757362       -4.67830225374640       -7.49322915892200
H           63.77786468334310       -6.70620878097690       -5.10268975413840
H           62.38674566345037       -6.42842188767777       -6.20653028512645
H           62.16666512699441       -6.26445938998213       -4.43828008022492
H           63.09516908744001       -4.30910796387174       -3.23293486934963
C           30.89876701057393        0.00234234419168       -0.00021510336658
C           32.25159652300349       -0.02083435689925       -0.02133459519520
C           33.51595308175546       -0.04104371619999       -0.02147624205765
C           34.80387042971228       -0.05286059783813       -0.02320873413501
C           36.08143718867927       -0.04326498506459       -0.02881975088487
C           37.29411029095225       -0.02368977138244       -0.03526475433400
C           38.57072535905428       -0.00051233663940       -0.01933869846830
C           39.75318493332281       -0.00405166930855       -0.00133127022061
C           49.05546946894530       -0.01090374748166       -0.00152064780937
C           50.35469374384034       -0.02036142477469       -0.01940947715444
C           51.59102474294622       -0.04141550367963       -0.02209976397880
C           52.87769766258559       -0.05338879557248       -0.02379702328448
C           54.15473404730065       -0.04320709852979       -0.02834377598063
C           55.37298002417135       -0.02373946181514       -0.03479255530498
C           56.69609641241791        0.00052327852033       -0.01952286854715
C           57.90985692758409        0.00209759268911       -0.00079808165337
Ni          44.31381622295456       -0.06396215089114       -0.02583027594832
C           41.01414674085920        0.01215277985169        0.02432124391518
C           41.62752609879927        1.21098170986778       -0.07367018229119
C           40.95520779984403        2.50365863584759       -0.08784555784783
C           41.89990799979283        3.42852085037245       -0.25122925369086
C           43.18591500622149        2.74390762692575       -0.34896486825815
N           43.00467300091935        1.34706390034304       -0.22981289784455
C           44.38336958373987        3.36682263255756       -0.54239728729149
C           45.65949652256426        2.66459651125772       -0.57891098613736
C           46.92209323949125        3.27276822354829       -0.98240532255569
C           47.88520955614041        2.35716595548939       -0.82501109718482