      -----------------------------------------------------------      
     |                   =====================                   |     
     |                           x T B                           |     
     |                   =====================                   |     
     |                         S. Grimme                         |     
     |          Mulliken Center for Theoretical Chemistry        |     
     |                    University of Bonn                     |     
      -----------------------------------------------------------      

   * xtb version 6.5.1 (b24c23e) compiled by 'conda@728c89f4b128' on 2022-07-12

   xtb is free software: you can redistribute it and/or modify it under
   the terms of the GNU Lesser General Public License as published by
   the Free Software Foundation, either version 3 of the License, or
   (at your option) any later version.
   
   xtb is distributed in the hope that it will be useful,
   but WITHOUT ANY WARRANTY; without even the implied warranty of
   MERCHANTABILITY or FITNESS FOR A PARTICULAR PURPOSE.  See the
   GNU Lesser General Public License for more details.
   
   Cite this work as:
   * C. Bannwarth, E. Caldeweyher, S. Ehlert, A. Hansen, P. Pracht,
     J. Seibert, S. Spicher, S. Grimme, WIREs Comput. Mol. Sci., 2020, 11,
     e01493. DOI: 10.1002/wcms.1493
   
   for GFN2-xTB:
   * C. Bannwarth, S. Ehlert and S. Grimme., J. Chem. Theory Comput., 2019,
     15, 1652-1671. DOI: 10.1021/acs.jctc.8b01176
   for GFN1-xTB:
   * S. Grimme, C. Bannwarth, P. Shushkov, J. Chem. Theory Comput., 2017,
     13, 1989-2009. DOI: 10.1021/acs.jctc.7b00118
   for GFN0-xTB:
   * P. Pracht, E. Caldeweyher, S. Ehlert, S. Grimme, ChemRxiv, 2019, preprint.
     DOI: 10.26434/chemrxiv.8326202.v1
   for GFN-FF:
   * S. Spicher and S. Grimme, Angew. Chem. Int. Ed., 2020, 59, 15665-15673.
     DOI: 10.1002/anie.202004239
   
   for ALPB and GBSA implicit solvation:
   * S. Ehlert, M. Stahn, S. Spicher, S. Grimme, J. Chem. Theory Comput.,
     2021, 17, 4250-4261. DOI: 10.1021/acs.jctc.1c00471
   
   for DFT-D4:
   * E. Caldeweyher, C. Bannwarth and S. Grimme, J. Chem. Phys., 2017,
     147, 034112. DOI: 10.1063/1.4993215
   * E. Caldeweyher, S. Ehlert, A. Hansen, H. Neugebauer, S. Spicher,
     C. Bannwarth and S. Grimme, J. Chem. Phys., 2019, 150, 154122.
     DOI: 10.1063/1.5090222
   * E. Caldeweyher, J.-M. Mewes, S. Ehlert and S. Grimme, Phys. Chem. Chem. Phys.
     2020, 22, 8499-8512. DOI: 10.1039/D0CP00502A
   
   for sTDA-xTB:
   * S. Grimme and C. Bannwarth, J. Chem. Phys., 2016, 145, 054103.
     DOI: 10.1063/1.4959605
   
   in the mass-spec context:
   * V. Asgeirsson, C. Bauer and S. Grimme, Chem. Sci., 2017, 8, 4879.
     DOI: 10.1039/c7sc00601b
   * J. Koopman and S. Grimme, ACS Omega 2019, 4, 12, 15120-15133.
     DOI: 10.1021/acsomega.9b02011
   
   for metadynamics refer to:
   * S. Grimme, J. Chem. Theory Comput., 2019, 155, 2847-2862
     DOI: 10.1021/acs.jctc.9b00143
   
   for SPH calculations refer to:
   * S. Spicher and S. Grimme, J. Chem. Theory Comput., 2021, 17, 1701-1714
     DOI: 10.1021/acs.jctc.0c01306
   
   with help from (in alphabetical order)
   P. Atkinson, C. Bannwarth, F. Bohle, G. Brandenburg, E. Caldeweyher
   M. Checinski, S. Dohm, S. Ehlert, S. Ehrlich, I. Gerasimov, C. Hölzer
   A. Katbashev, J. Koopman, C. Lavigne, S. Lehtola, F. März, M. Müller,
   F. Musil, H. Neugebauer, J. Pisarek, C. Plett, P. Pracht, F. Pultar,
   J. Seibert, P. Shushkov, S. Spicher, M. Stahn, M. Steiner, T. Strunk,
   J. Stückrath, T. Rose, and J. Unsleber
   
 * started run on 2022/07/29 at 22:11:01.781     

           -------------------------------------------------
          |                Calculation Setup                |
           -------------------------------------------------

          program call               : xtb xtbopt.xyz --gfn 1 --vipea
          hostname                   : cx3-14-28.cx3.hpc.ic.ac.uk
          coordinate file            : xtbopt.xyz
          omp threads                :                     1

   ID    Z sym.   atoms
    1   26 Fe     1, 63, 137
    2    6 C      2-6, 8-11, 13-24, 27-32, 35-39, 42, 43, 64-68, 70-73,
                  75-86, 89-94, 97-101, 104, 105, 125-136, 138-142, 144-147,
                  149-160, 163-168, 171-175, 178, 179
    3    7 N      7, 12, 33, 34, 69, 74, 95, 96, 143, 148, 169, 170
    4    8 O      25, 26, 40, 41, 87, 88, 102, 103, 161, 162, 176, 177
    5    1 H      44-62, 106-124, 180-197

           -------------------------------------------------
          |                 I P E A - x T B                 |
           -------------------------------------------------

        Reference                      10.1039/c7sc00601b
      * Hamiltonian:
        H0-scaling (s, p, d)           2.150000    2.300000    2.000000
        zeta-weighting                 0.000000
      * Dispersion:
        s8                             2.400000
        a1                             0.630000
        a2                             5.000000
        s9                             0.000000
      * Repulsion:
        kExp                           1.500000
        rExp                           1.000000
      * Coulomb:
        alpha                          1.000000
        third order                    atomic
        anisotropic                    false
      * Halogen bond correction:
        rad-scale                      1.300000
        damping                        0.440000


          ...................................................
          :                      SETUP                      :
          :.................................................:
          :  # basis functions                 832          :
          :  # atomic orbitals                 829          :
          :  # shells                          535          :
          :  # electrons                       668          :
          :  # halogen bonds                     0          :
          :  max. iterations                   250          :
          :  Hamiltonian                  GFN1-xTB          :
          :  restarted?                      false          :
          :  GBSA solvation                  false          :
          :  PC potential                    false          :
          :  electronic temp.          300.0000000     K    :
          :  accuracy                    1.0000000          :
          :  -> integral cutoff          0.2500000E+02      :
          :  -> integral neglect         0.1000000E-07      :
          :  -> SCF convergence          0.1000000E-05 Eh   :
          :  -> wf. convergence          0.2000000E-04 e    :
          :  Broyden damping             0.4000000          :
          ...................................................

 iter      E             dE          RMSdq      gap      omega  full diag
   1   -403.2834229 -0.403283E+03  0.118E+01    0.00       0.0  T
   2   -319.4221483  0.838613E+02  0.120E+01    0.02       1.0  T
   3   -418.9794561 -0.995573E+02  0.583E+00    0.17       1.0  T
   4   -403.9449490  0.150345E+02  0.538E+00    0.01       1.0  T
   5   -366.1202154  0.378247E+02  0.726E+00    0.12       1.0  T
   6   -398.8418485 -0.327216E+02  0.562E+00    0.03       1.0  T
   7   -409.8044653 -0.109626E+02  0.453E+00    0.06       1.0  T
   8   -409.5920798  0.212386E+00  0.449E+00    0.12       1.0  T
   9   -410.0507733 -0.458694E+00  0.442E+00    0.08       1.0  T
  10   -421.5125082 -0.114617E+02  0.230E+00    0.00       1.0  T
  11   -417.7018227  0.381069E+01  0.363E+00    0.01       1.0  T
  12   -417.1037560  0.598067E+00  0.372E+00    0.02       1.0  T
  13   -418.4059341 -0.130218E+01  0.358E+00    0.05       1.0  T
  14   -417.8901758  0.515758E+00  0.362E+00    0.02       1.0  T
  15   -421.7590277 -0.386885E+01  0.227E+00    0.08       1.0  T
  16   -420.3733154  0.138571E+01  0.274E+00    0.10       1.0  T
  17   -418.0413448  0.233197E+01  0.355E+00    0.04       1.0  T
  18   -417.6136111  0.427734E+00  0.355E+00    0.02       1.0  T
  19   -421.2344173 -0.362081E+01  0.268E+00    0.05       1.0  T
  20   -418.3647424  0.286967E+01  0.338E+00    0.06       1.0  T
  21   -418.7395555 -0.374813E+00  0.327E+00    0.08       1.0  T
  22   -418.1770408  0.562515E+00  0.340E+00    0.03       1.0  T
  23   -423.6184872 -0.544145E+01  0.185E+00    0.01       1.0  T
  24   -418.4432315  0.517526E+01  0.328E+00    0.02       1.0  T
  25   -419.1758157 -0.732584E+00  0.311E+00    0.04       1.0  T
  26   -418.0685428  0.110727E+01  0.338E+00    0.02       1.0  T
  27   -418.3704752 -0.301932E+00  0.328E+00    0.03       1.0  T
  28   -419.9605039 -0.159003E+01  0.290E+00    0.04       1.0  T
  29   -422.9782472 -0.301774E+01  0.204E+00    0.01       1.0  T
  30   -419.6899590  0.328829E+01  0.296E+00    0.03       1.0  T
  31   -423.7823111 -0.409235E+01  0.174E+00    0.01       1.0  T
  32   -419.0226888  0.475962E+01  0.311E+00    0.03       1.0  T
  33   -423.8374909 -0.481480E+01  0.170E+00    0.00       1.0  T
  34   -420.9084511  0.292904E+01  0.264E+00    0.04       1.0  T
  35   -423.1533461 -0.224490E+01  0.194E+00    0.00       1.0  T
  36   -423.5581846 -0.404838E+00  0.179E+00    0.01       1.0  T
  37   -423.0597395  0.498445E+00  0.197E+00    0.00       1.0  T
  38   -423.1266347 -0.668952E-01  0.193E+00    0.00       1.0  T
  39   -424.6324233 -0.150579E+01  0.115E+00    0.00       1.0  T
  40   -419.0206447  0.561178E+01  0.318E+00    0.04       1.0  T
  41   -418.7229577  0.297687E+00  0.318E+00    0.03       1.0  T
  42   -418.5668130  0.156145E+00  0.323E+00    0.04       1.0  T
  43   -419.8708635 -0.130405E+01  0.292E+00    0.03       1.0  T
  44   -420.8962298 -0.102537E+01  0.264E+00    0.04       1.0  T
  45   -425.1042641 -0.420803E+01  0.736E-01    0.01       1.0  T
  46   -422.5885157  0.251575E+01  0.211E+00    0.02       1.0  T
  47   -423.7194910 -0.113098E+01  0.167E+00    0.00       1.0  T
  48   -423.6552532  0.642378E-01  0.166E+00    0.02       1.0  T
  49   -425.3751329 -0.171988E+01  0.206E-01    0.03       1.0  T
  50   -424.2495250  0.112561E+01  0.142E+00    0.01       1.0  T
  51   -423.3412145  0.908311E+00  0.182E+00    0.01       1.0  T
  52   -424.7023857 -0.136117E+01  0.112E+00    0.00       1.0  T
  53   -421.5321134  0.317027E+01  0.246E+00    0.04       1.0  T
  54   -424.7278835 -0.319577E+01  0.109E+00    0.01       1.0  T
  55   -422.7525003  0.197538E+01  0.205E+00    0.02       1.0  T
  56   -424.6523576 -0.189986E+01  0.116E+00    0.00       1.0  T
  57   -422.5652113  0.208715E+01  0.212E+00    0.04       1.0  T
  58   -425.1331076 -0.256790E+01  0.687E-01    0.00       1.0  T
  59   -424.4177464  0.715361E+00  0.132E+00    0.00       1.0  T
  60   -424.7379335 -0.320187E+00  0.108E+00    0.01       1.0  T
  61   -425.3410786 -0.603145E+00  0.331E-01    0.02       1.0  T
  62   -424.0064130  0.133467E+01  0.151E+00    0.02       1.0  T
  63   -425.3114106 -0.130500E+01  0.390E-01    0.02       1.0  T
  64   -425.1197887  0.191622E+00  0.699E-01    0.00       1.0  T
  65   -425.2315811 -0.111792E+00  0.538E-01    0.01       1.0  T
  66   -425.3936097 -0.162029E+00  0.113E-01    0.03       1.0  T
  67   -425.2452369  0.148373E+00  0.512E-01    0.01       1.0  T
  68   -425.3778554 -0.132619E+00  0.195E-01    0.02       1.0  T
  69   -425.3499150  0.279404E-01  0.295E-01    0.02       1.0  T
  70   -425.3765126 -0.265976E-01  0.201E-01    0.02       1.0  T
  71   -425.4001458 -0.236332E-01  0.159E-02    0.03       1.0  T
  72   -425.3943707  0.577515E-02  0.101E-01    0.03       1.0  T
  73   -425.3993434 -0.497270E-02  0.403E-02    0.03       1.0  T
  74   -425.3952747  0.406867E-02  0.927E-02    0.03       1.0  T
  75   -425.3988553 -0.358066E-02  0.497E-02    0.03       1.0  T
  76   -425.3996377 -0.782304E-03  0.338E-02    0.03       1.0  T
  77   -425.4002574 -0.619749E-03  0.103E-02    0.03       1.0  T
  78   -425.3999871  0.270254E-03  0.237E-02    0.03       1.0  T
  79   -425.3999686  0.185046E-04  0.245E-02    0.03       1.0  T
  80   -425.4001885 -0.219871E-03  0.150E-02    0.03       1.0  T
  81   -425.4003037 -0.115209E-03  0.569E-03    0.03       1.3  T
  82   -425.4003221 -0.183744E-04  0.144E-03    0.03       4.9  T
  83   -425.4003161  0.594739E-05  0.354E-03    0.03       2.0  T
  84   -425.4002993  0.168452E-04  0.648E-03    0.03       1.1  T
  85   -425.4003192 -0.198820E-04  0.271E-03    0.03       2.6  T
  86   -425.4003230 -0.379567E-05  0.900E-04    0.03       7.9  T
  87   -425.4003232 -0.250859E-06  0.600E-04    0.03      11.9  T
  88   -425.4003232 -0.592786E-08  0.589E-04    0.03      12.1  T
  89   -425.4003226  0.608357E-06  0.118E-03    0.03       6.0  T
  90   -425.4003232 -0.555971E-06  0.650E-04    0.03      11.0  T
  91   -425.4003234 -0.245465E-06  0.363E-05    0.03     196.1  T
  92   -425.4003234  0.591314E-08  0.108E-04    0.03      66.0  T

   *** convergence criteria satisfied after 92 iterations ***

         #    Occupation            Energy/Eh            Energy/eV
      -------------------------------------------------------------
         1        2.0000           -1.0643463             -28.9623
       ...           ...                  ...                  ...
       328        1.9334           -0.3634090              -9.8889
       329        1.6282           -0.3616116              -9.8400
       330        1.5776           -0.3614606              -9.8358
       331        1.5766           -0.3614577              -9.8358
       332        1.5334           -0.3613388              -9.8325
       333        1.5279           -0.3613243              -9.8321
       334        1.4955           -0.3612409              -9.8299 (HOMO)
       335        0.9617           -0.3601357              -9.7998 (LUMO)
       336        0.9468           -0.3601074              -9.7990
       337        0.9427           -0.3600997              -9.7988
       338                         -0.3273265              -8.9070
       339                         -0.3204912              -8.7210
       ...                                ...                  ...
       829                        527.2391250           14346.9068
      -------------------------------------------------------------
                  HL-Gap            0.0011053 Eh            0.0301 eV
             Fermi-level           -0.3602086 Eh           -9.8018 eV

 SCC (total)                   0 d,  0 h,  0 min, 23.403 sec
 SCC setup                      ...        0 min,  0.006 sec (  0.024%)
 Dispersion                     ...        0 min,  0.008 sec (  0.035%)
 classical contributions        ...        0 min,  0.003 sec (  0.012%)
 integral evaluation            ...        0 min,  0.601 sec (  2.568%)
 iterations                     ...        0 min, 21.518 sec ( 91.945%)
 molecular gradient             ...        0 min,  1.220 sec (  5.214%)
 printout                       ...        0 min,  0.047 sec (  0.202%)

         :::::::::::::::::::::::::::::::::::::::::::::::::::::
         ::                     SUMMARY                     ::
         :::::::::::::::::::::::::::::::::::::::::::::::::::::
         :: total energy            -417.585016593297 Eh    ::
         :: gradient norm              0.162509079894 Eh/a0 ::
         :: HOMO-LUMO gap              0.030075684275 eV    ::
         ::.................................................::
         :: SCC energy              -425.400323424990 Eh    ::
         :: -> electrostatic           0.393287782582 Eh    ::
         :: repulsion energy           7.991312263671 Eh    ::
         :: dispersion energy         -0.176005431977 Eh    ::
         :: halogen bond corr.         0.000000000000 Eh    ::
         :: add. restraining           0.000000000000 Eh    ::
         :: total charge              -0.000000000000 e     ::
         :::::::::::::::::::::::::::::::::::::::::::::::::::::

           ------------------------------------------------- 
          |        vertical delta SCC IP calculation        |
           ------------------------------------------------- 
   1   -424.9438794 -0.424944E+03  0.373E-01    0.03       0.0  T
   2   -420.0030844  0.494080E+01  0.318E+00    0.13       1.0  T
   3   -424.8066739 -0.480359E+01  0.605E-01    0.01       1.0  T
   4   -420.8002984  0.400638E+01  0.252E+00    0.05       1.0  T
   5   -415.3227108  0.547759E+01  0.370E+00    0.04       1.0  T
   6   -423.4733667 -0.815066E+01  0.163E+00    0.00       1.0  T
   7   -423.1385904  0.334776E+00  0.184E+00    0.00       1.0  T
   8   -422.5877847  0.550806E+00  0.203E+00    0.00       1.0  T
   9   -420.8648715  0.172291E+01  0.253E+00    0.04       1.0  T
  10   -422.8174462 -0.195257E+01  0.195E+00    0.00       1.0  T
  11   -422.2035644  0.613882E+00  0.216E+00    0.02       1.0  T
  12   -421.4694128  0.734152E+00  0.237E+00    0.05       1.0  T
  13   -421.5710155 -0.101603E+00  0.232E+00    0.06       1.0  T
  14   -421.9875518 -0.416536E+00  0.216E+00    0.06       1.0  T
  15   -422.6392815 -0.651730E+00  0.196E+00    0.03       1.0  T
  16   -422.0023779  0.636904E+00  0.218E+00    0.04       1.0  T
  17   -422.1548378 -0.152460E+00  0.212E+00    0.04       1.0  T
  18   -422.4383526 -0.283515E+00  0.200E+00    0.04       1.0  T
  19   -423.5730524 -0.113470E+01  0.152E+00    0.03       1.0  T
  20   -424.4498384 -0.876786E+00  0.996E-01    0.00       1.0  T
  21   -424.9524280 -0.502590E+00  0.319E-01    0.00       1.0  T
  22   -424.4001633  0.552265E+00  0.102E+00    0.00       1.0  T
  23   -424.2133804  0.186783E+00  0.117E+00    0.00       1.0  T
  24   -424.2804293 -0.670489E-01  0.112E+00    0.00       1.0  T
  25   -424.9951621 -0.714733E+00  0.161E-01    0.00       1.0  T
  26   -424.3182954  0.676867E+00  0.106E+00    0.03       1.0  T
  27   -424.8658770 -0.547582E+00  0.485E-01    0.01       1.0  T
  28   -424.9773372 -0.111460E+00  0.229E-01    0.00       1.0  T
  29   -425.0065144 -0.291772E-01  0.674E-02    0.00       1.0  T
  30   -425.0074266 -0.912205E-03  0.530E-02    0.00       1.0  T
  31   -425.0023863  0.504033E-02  0.105E-01    0.00       1.0  T
  32   -425.0021128  0.273493E-03  0.106E-01    0.00       1.0  T
  33   -425.0083954 -0.628265E-02  0.248E-02    0.00       1.0  T
  34   -425.0042038  0.419164E-02  0.883E-02    0.00       1.0  T
  35   -425.0055791 -0.137536E-02  0.736E-02    0.00       1.0  T
  36   -425.0075782 -0.199905E-02  0.445E-02    0.00       1.0  T
  37   -425.0087003 -0.112213E-02  0.824E-03    0.00       1.0  T
  38   -425.0087214 -0.210790E-04  0.584E-03    0.00       1.2  T
  39   -425.0087207  0.702474E-06  0.590E-03    0.00       1.2  T
  40   -425.0087350 -0.142707E-04  0.322E-03    0.00       2.2  T
  41   -425.0087405 -0.554374E-05  0.991E-04    0.00       7.2  T
  42   -425.0087410 -0.547349E-06  0.270E-04    0.00      26.4  T
  43   -425.0087411 -0.413039E-07  0.749E-05    0.00      95.1  T
  44   -425.0087411 -0.829289E-09  0.660E-05    0.00     107.9  T
     SCC iter.                  ...        0 min,  9.850 sec
     gradient                   ...        0 min,  1.152 sec
------------------------------------------------------------------------
empirical IP shift (eV):    4.8455
delta SCC IP (eV):    5.8100
------------------------------------------------------------------------
           ------------------------------------------------- 
          |        vertical delta SCC EA calculation        |
           ------------------------------------------------- 
   1   -425.4843290 -0.425484E+03  0.750E-01    0.00       0.0  T
   2   -382.8333516  0.426510E+02  0.718E+00    0.00       1.0  T
   3   -425.2602739 -0.424269E+02  0.981E-01    0.01       1.0  T
   4   -424.4867628  0.773511E+00  0.159E+00    0.00       1.0  T
   5   -422.0315827  0.245518E+01  0.252E+00    0.00       1.0  T
   6   -422.6785401 -0.646957E+00  0.234E+00    0.01       1.0  T
   7   -425.5342233 -0.285568E+01  0.636E-01    0.00       1.0  T
   8   -425.1335362  0.400687E+00  0.109E+00    0.01       1.0  T
   9   -425.5230895 -0.389553E+00  0.632E-01    0.01       1.0  T
  10   -425.6364736 -0.113384E+00  0.436E-01    0.00       1.0  T
  11   -425.3795238  0.256950E+00  0.804E-01    0.02       1.0  T
  12   -425.5463614 -0.166838E+00  0.583E-01    0.02       1.0  T
  13   -425.6448056 -0.984442E-01  0.397E-01    0.02       1.0  T
  14   -425.3448584  0.299947E+00  0.806E-01    0.00       1.0  T
  15   -425.6519745 -0.307116E+00  0.374E-01    0.02       1.0  T
  16   -425.5032094  0.148765E+00  0.615E-01    0.00       1.0  T
  17   -425.6895601 -0.186351E+00  0.267E-01    0.01       1.0  T
  18   -425.7145284 -0.249682E-01  0.162E-01    0.00       1.0  T
  19   -425.7182892 -0.376083E-02  0.144E-01    0.01       1.0  T
  20   -425.7258682 -0.757903E-02  0.837E-02    0.00       1.0  T
  21   -425.7282748 -0.240660E-02  0.545E-02    0.00       1.0  T
  22   -425.7295960 -0.132122E-02  0.262E-02    0.00       1.0  T
  23   -425.7297959 -0.199867E-03  0.187E-02    0.00       1.0  T
  24   -425.7297500  0.459339E-04  0.209E-02    0.00       1.0  T
  25   -425.7299183 -0.168283E-03  0.121E-02    0.00       1.0  T
  26   -425.7299261 -0.781558E-05  0.114E-02    0.00       1.0  T
  27   -425.7299994 -0.732770E-04  0.259E-03    0.00       2.8  T
  28   -425.7300013 -0.194294E-05  0.185E-03    0.00       3.8  T
  29   -425.7300030 -0.165673E-05  0.808E-04    0.00       8.8  T
  30   -425.7300032 -0.207197E-06  0.542E-04    0.00      13.1  T
  31   -425.7300033 -0.119645E-06  0.299E-04    0.00      23.9  T
  32   -425.7300033 -0.447670E-07  0.120E-04    0.00      59.5  T
  33   -425.7300033 -0.352378E-08  0.894E-05    0.00      79.7  T
     SCC iter.                  ...        0 min,  7.972 sec
     gradient                   ...        0 min,  1.170 sec
------------------------------------------------------------------------
empirical EA shift (eV):    4.8455
delta SCC EA (eV):    4.1255
------------------------------------------------------------------------
           -------------------------------------------------
          |                Property Printout                |
           -------------------------------------------------

    * Orbital Energies and Occupations

         #    Occupation            Energy/Eh            Energy/eV
      -------------------------------------------------------------
         1        2.0000           -1.0285323             -27.9878
       ...           ...                  ...                  ...
       323        2.0000           -0.3465630              -9.4305
       324        2.0000           -0.3446137              -9.3774
       325        2.0000           -0.3371930              -9.1755
       326        1.9059           -0.3027408              -8.2380
       327        1.8880           -0.3025649              -8.2332
       328        1.8865           -0.3025520              -8.2329
       329        1.8635           -0.3023637              -8.2277
       330        1.8288           -0.3021282              -8.2213
       331        1.8051           -0.3019914              -8.2176
       332        1.7995           -0.3019613              -8.2168
       333        1.7979           -0.3019525              -8.2165
       334        1.7536           -0.3017378              -8.2107
       335        0.8405           -0.2995102              -8.1501 (HOMO)
       336        0.8166           -0.2994617              -8.1488 (LUMO)
       337        0.8142           -0.2994569              -8.1486
       338                         -0.2739182              -7.4537
       339                         -0.2679772              -7.2920
       340                         -0.2655453              -7.2259
       341                         -0.2643220              -7.1926
       342                         -0.2641851              -7.1888
       343                         -0.2635791              -7.1724
       344                         -0.2414545              -6.5703
       345                         -0.2387820              -6.4976
       346                         -0.2385986              -6.4926
       ...                                ...                  ...
       829                        527.2900273           14348.2920
      -------------------------------------------------------------
                  HL-Gap            0.0000485 Eh            0.0013 eV
             Fermi-level           -0.2998260 Eh           -8.1587 eV

  Mulliken/CM5 charges         n(s)   n(p)   n(d)
     1Fe   -0.06888  0.36543   0.548  1.392  6.129
     2C    -0.01548 -0.05698   1.082  2.933  0.000
     3C     0.06346  0.12381   1.108  2.828  0.000
     4C    -0.03802 -0.08451   1.085  2.953  0.000
     5C    -0.03693 -0.08291   1.078  2.959  0.000
     6C     0.06488  0.12898   1.103  2.832  0.000
     7N    -0.16979 -0.43735   1.315  3.855  0.000
     8C     0.01319  0.01837   1.081  2.905  0.000
     9C     0.06438  0.12759   1.101  2.835  0.000
    10C    -0.03578 -0.08174   1.077  2.959  0.000
    11C    -0.03578 -0.08133   1.084  2.952  0.000
    12N    -0.16791 -0.43436   1.315  3.853  0.000
    13C     0.06898  0.13404   1.113  2.818  0.000
    14C     0.02413  0.03085   1.077  2.899  0.000
    15C     0.06881  0.13375   1.113  2.818  0.000
    16C    -0.03578 -0.08133   1.083  2.953  0.000
    17C    -0.03579 -0.08184   1.077  2.959  0.000
    18C     0.06435  0.12766   1.101  2.835  0.000
    19C     0.01248  0.01765   1.081  2.907  0.000
    20C     0.01672  0.00788   1.093  2.890  0.000
    21C    -0.01730 -0.07057   1.078  2.939  0.000
    22C    -0.01279 -0.06438   1.090  2.923  0.000
    23C     0.00515  0.00166   1.087  2.907  0.000
    24C     0.23275  0.28768   1.194  2.573  0.000
    25O    -0.28087 -0.47742   1.681  4.600  0.000
    26O    -0.33224 -0.38194   1.629  4.704  0.000
    27C    -0.01459 -0.06621   1.088  2.927  0.000
    28C    -0.01789 -0.07111   1.078  2.939  0.000
    29C     0.06504  0.12908   1.103  2.831  0.000
    30C    -0.03675 -0.08286   1.078  2.959  0.000
    31C    -0.03782 -0.08432   1.085  2.953  0.000
    32C     0.06350  0.12381   1.108  2.829  0.000
    33N    -0.16987 -0.43666   1.314  3.856  0.000
    34N    -0.16784 -0.43535   1.315  3.853  0.000
    35C     0.01701  0.00812   1.094  2.889  0.000
    36C    -0.01737 -0.07062   1.078  2.939  0.000
    37C    -0.01256 -0.06415   1.090  2.922  0.000
    38C     0.00507  0.00157   1.087  2.908  0.000
    39C     0.23282  0.28776   1.194  2.573  0.000
    40O    -0.28101 -0.47755   1.681  4.600  0.000
    41O    -0.33197 -0.38170   1.629  4.703  0.000
    42C    -0.01463 -0.06626   1.088  2.927  0.000
    43C    -0.01833 -0.07159   1.078  2.940  0.000
    44H     0.02941  0.08840   0.971  0.000  0.000
    45H     0.03148  0.08811   0.969  0.000  0.000
    46H     0.02461  0.08355   0.975  0.000  0.000
    47H     0.02601  0.08498   0.974  0.000  0.000
    48H     0.02905  0.08724   0.971  0.000  0.000
    49H     0.02893  0.08707   0.971  0.000  0.000
    50H     0.02541  0.08431   0.975  0.000  0.000
    51H     0.03040  0.08831   0.970  0.000  0.000
    52H     0.04374  0.10423   0.956  0.000  0.000
    53H     0.24164  0.41745   0.758  0.000  0.000
    54H     0.04534  0.10658   0.955  0.000  0.000
    55H     0.03016  0.08808   0.970  0.000  0.000
    56H     0.02402  0.08294   0.976  0.000  0.000
    57H     0.03154  0.08817   0.968  0.000  0.000
    58H     0.03059  0.08834   0.969  0.000  0.000
    59H     0.04400  0.10451   0.956  0.000  0.000
    60H     0.24162  0.41744   0.758  0.000  0.000
    61H     0.04510  0.10633   0.955  0.000  0.000
    62H     0.02985  0.08755   0.970  0.000  0.000
    63Fe   -0.06870  0.36677   0.548  1.392  6.129
    64C    -0.01554 -0.05703   1.082  2.933  0.000
    65C     0.06337  0.12373   1.108  2.829  0.000
    66C    -0.03809 -0.08457   1.085  2.953  0.000
    67C    -0.03702 -0.08299   1.078  2.959  0.000
    68C     0.06477  0.12890   1.103  2.832  0.000
    69N    -0.16972 -0.43765   1.315  3.855  0.000
    70C     0.01313  0.01832   1.081  2.906  0.000
    71C     0.06422  0.12741   1.101  2.835  0.000
    72C    -0.03589 -0.08184   1.077  2.959  0.000
    73C    -0.03589 -0.08143   1.084  2.952  0.000
    74N    -0.16783 -0.43463   1.315  3.853  0.000
    75C     0.06899  0.13414   1.113  2.818  0.000
    76C     0.02405  0.03079   1.077  2.899  0.000
    77C     0.06884  0.13387   1.113  2.818  0.000
    78C    -0.03578 -0.08133   1.083  2.953  0.000
    79C    -0.03571 -0.08176   1.077  2.959  0.000
    80C     0.06428  0.12756   1.101  2.835  0.000
    81C     0.01250  0.01768   1.081  2.906  0.000
    82C     0.01667  0.00784   1.093  2.890  0.000
    83C    -0.01735 -0.07061   1.078  2.939  0.000
    84C    -0.01282 -0.06442   1.090  2.923  0.000
    85C     0.00518  0.00169   1.088  2.907  0.000
    86C     0.23278  0.28772   1.194  2.573  0.000
    87O    -0.28074 -0.47730   1.681  4.600  0.000
    88O    -0.33227 -0.38197   1.629  4.704  0.000
    89C    -0.01453 -0.06615   1.088  2.927  0.000
    90C    -0.01782 -0.07104   1.078  2.939  0.000
    91C     0.06502  0.12909   1.103  2.832  0.000
    92C    -0.03674 -0.08284   1.078  2.959  0.000
    93C    -0.03785 -0.08435   1.085  2.953  0.000
    94C     0.06344  0.12374   1.108  2.829  0.000
    95N    -0.16975 -0.43698   1.314  3.856  0.000
    96N    -0.16773 -0.43552   1.315  3.853  0.000
    97C     0.01705  0.00817   1.094  2.889  0.000
    98C    -0.01743 -0.07066   1.079  2.939  0.000
    99C    -0.01262 -0.06420   1.091  2.922  0.000
   100C     0.00501  0.00152   1.087  2.908  0.000
   101C     0.23279  0.28773   1.194  2.573  0.000
   102O    -0.28102 -0.47755   1.681  4.600  0.000
   103O    -0.33208 -0.38180   1.629  4.703  0.000
   104C    -0.01464 -0.06626   1.088  2.927  0.000
   105C    -0.01830 -0.07157   1.078  2.940  0.000
   106H     0.02939  0.08837   0.971  0.000  0.000
   107H     0.03140  0.08802   0.969  0.000  0.000
   108H     0.02453  0.08346   0.975  0.000  0.000
   109H     0.02585  0.08479   0.974  0.000  0.000
   110H     0.02895  0.08712   0.971  0.000  0.000
   111H     0.02901  0.08713   0.971  0.000  0.000
   112H     0.02546  0.08434   0.975  0.000  0.000
   113H     0.03027  0.08820   0.970  0.000  0.000
   114H     0.04369  0.10418   0.956  0.000  0.000
   115H     0.24171  0.41750   0.758  0.000  0.000
   116H     0.04548  0.10673   0.955  0.000  0.000
   117H     0.03029  0.08824   0.970  0.000  0.000
   118H     0.02403  0.08294   0.976  0.000  0.000
   119H     0.03152  0.08814   0.968  0.000  0.000
   120H     0.03050  0.08823   0.969  0.000  0.000
   121H     0.04389  0.10439   0.956  0.000  0.000
   122H     0.24157  0.41737   0.758  0.000  0.000
   123H     0.04509  0.10632   0.955  0.000  0.000
   124H     0.02995  0.08764   0.970  0.000  0.000
   125C    -0.01312 -0.01321   1.077  2.936  0.000
   126C    -0.01360 -0.01369   1.077  2.937  0.000
   127C    -0.01788 -0.01863   1.064  2.954  0.000
   128C    -0.01340 -0.01511   1.093  2.920  0.000
   129C    -0.01810 -0.01877   1.064  2.954  0.000
   130C    -0.01280 -0.01433   1.094  2.919  0.000
   131C    -0.01368 -0.01378   1.076  2.937  0.000
   132C    -0.01325 -0.01334   1.077  2.936  0.000
   133C    -0.01815 -0.01882   1.064  2.954  0.000
   134C    -0.01290 -0.01443   1.093  2.920  0.000
   135C    -0.01799 -0.01873   1.064  2.954  0.000
   136C    -0.01345 -0.01514   1.093  2.920  0.000
   137Fe   -0.06559  0.38121   0.550  1.394  6.122
   138C     0.02375  0.03067   1.077  2.900  0.000
   139C     0.06887  0.13395   1.113  2.818  0.000
   140C    -0.03575 -0.08127   1.083  2.953  0.000
   141C    -0.03498 -0.08105   1.078  2.957  0.000
   142C     0.06414  0.12745   1.101  2.835  0.000
   143N    -0.16686 -0.43760   1.314  3.853  0.000
   144C     0.01440  0.01961   1.082  2.904  0.000
   145C     0.06420  0.12744   1.101  2.835  0.000
   146C    -0.03511 -0.08120   1.078  2.957  0.000
   147C    -0.03584 -0.08136   1.083  2.953  0.000
   148N    -0.16649 -0.43662   1.313  3.853  0.000
   149C     0.06906  0.13422   1.113  2.818  0.000
   150C     0.02375  0.03068   1.077  2.900  0.000
   151C     0.06887  0.13400   1.113  2.818  0.000
   152C    -0.03583 -0.08135   1.083  2.953  0.000
   153C    -0.03513 -0.08121   1.078  2.957  0.000
   154C     0.06403  0.12730   1.101  2.835  0.000
   155C     0.01422  0.01943   1.082  2.904  0.000
   156C     0.01672  0.00800   1.092  2.891  0.000
   157C    -0.01677 -0.06994   1.079  2.938  0.000
   158C    -0.01241 -0.06399   1.090  2.922  0.000
   159C     0.00544  0.00195   1.088  2.907  0.000
   160C     0.23289  0.28785   1.194  2.573  0.000
   161O    -0.28090 -0.47745   1.681  4.600  0.000
   162O    -0.33175 -0.38145   1.629  4.703  0.000
   163C    -0.01461 -0.06623   1.087  2.927  0.000
   164C    -0.01771 -0.07094   1.078  2.940  0.000
   165C     0.06417  0.12746   1.101  2.835  0.000
   166C    -0.03533 -0.08142   1.078  2.957  0.000
   167C    -0.03594 -0.08146   1.083  2.953  0.000
   168C     0.06893  0.13399   1.113  2.818  0.000
   169N    -0.16663 -0.43668   1.313  3.853  0.000
   170N    -0.16685 -0.43761   1.314  3.853  0.000
   171C     0.01666  0.00794   1.092  2.891  0.000
   172C    -0.01677 -0.06995   1.079  2.938  0.000
   173C    -0.01232 -0.06391   1.090  2.922  0.000
   174C     0.00556  0.00207   1.088  2.907  0.000
   175C     0.23298  0.28796   1.194  2.573  0.000
   176O    -0.28079 -0.47736   1.681  4.600  0.000
   177O    -0.33155 -0.38125   1.629  4.703  0.000
   178C    -0.01453 -0.06615   1.087  2.927  0.000
   179C    -0.01767 -0.07088   1.078  2.940  0.000
   180H     0.02888  0.08687   0.971  0.000  0.000
   181H     0.02541  0.08419   0.975  0.000  0.000
   182H     0.02514  0.08393   0.975  0.000  0.000
   183H     0.02874  0.08675   0.971  0.000  0.000
   184H     0.02877  0.08675   0.971  0.000  0.000
   185H     0.02515  0.08392   0.975  0.000  0.000
   186H     0.03096  0.08899   0.969  0.000  0.000
   187H     0.04450  0.10499   0.956  0.000  0.000
   188H     0.24154  0.41731   0.758  0.000  0.000
   189H     0.04529  0.10653   0.955  0.000  0.000
   190H     0.03030  0.08833   0.970  0.000  0.000
   191H     0.02490  0.08371   0.975  0.000  0.000
   192H     0.02853  0.08654   0.971  0.000  0.000
   193H     0.03101  0.08901   0.969  0.000  0.000
   194H     0.04467  0.10516   0.955  0.000  0.000
   195H     0.24168  0.41744   0.758  0.000  0.000
   196H     0.04544  0.10670   0.955  0.000  0.000
   197H     0.03038  0.08843   0.970  0.000  0.000

Wiberg/Mayer (AO) data.
largest (>0.10) Wiberg bond orders for each atom

 ---------------------------------------------------------------------------
     #   Z sym  total        # sym  WBO       # sym  WBO       # sym  WBO
 ---------------------------------------------------------------------------
     1  26 Fe   4.343 --    33 N    0.871     7 N    0.870    12 N    0.865
                            34 N    0.864
     2   6 C    3.837 --    32 C    1.395     3 C    1.394    44 H    0.996
     3   6 C    3.944 --     2 C    1.394     7 N    1.223     4 C    1.204
     4   6 C    3.856 --     5 C    1.638     3 C    1.204    45 H    0.993
     5   6 C    3.831 --     4 C    1.638     6 C    1.209    46 H    0.999
     6   6 C    3.923 --     8 C    1.365     7 N    1.227     5 C    1.209
     7   7 N    3.120 --     6 C    1.227     3 C    1.223     1 Fe   0.870
     8   6 C    3.842 --     9 C    1.372     6 C    1.365    35 C    1.044
     9   6 C    3.915 --     8 C    1.372    12 N    1.216    10 C    1.214
    10   6 C    3.828 --    11 C    1.627     9 C    1.214    47 H    0.998
    11   6 C    3.848 --    10 C    1.627    13 C    1.225    48 H    0.998
    12   7 N    3.125 --    13 C    1.244     9 C    1.216     1 Fe   0.865
    13   6 C    3.922 --    14 C    1.309    12 N    1.244    11 C    1.225
    14   6 C    3.866 --    13 C    1.309    15 C    1.308   128 C    1.203
    15   6 C    3.923 --    14 C    1.308    34 N    1.242    16 C    1.226
    16   6 C    3.846 --    17 C    1.624    15 C    1.226    49 H    0.998
    17   6 C    3.827 --    16 C    1.624    18 C    1.216    50 H    0.998
    18   6 C    3.916 --    19 C    1.366    34 N    1.219    17 C    1.216
    19   6 C    3.843 --    18 C    1.366    29 C    1.366    20 C    1.051
    20   6 C    3.895 --    28 C    1.420    21 C    1.419    19 C    1.051
    21   6 C    3.865 --    22 C    1.465    20 C    1.419    51 H    0.988
    22   6 C    3.897 --    21 C    1.465    23 C    1.400    52 H    0.986
    23   6 C    3.899 --    22 C    1.400    27 C    1.400    24 C    1.040
    24   6 C    4.098 --    26 O    1.816    25 O    1.210    23 C    1.040
    25   8 O    2.367 --    24 C    1.210    53 H    0.944    26 O    0.183
    26   8 O    2.030 --    24 C    1.816    25 O    0.183
    27   6 C    3.893 --    28 C    1.463    23 C    1.400    54 H    0.986
    28   6 C    3.867 --    27 C    1.463    20 C    1.420    55 H    0.988
    29   6 C    3.924 --    19 C    1.366    33 N    1.227    30 C    1.209
    30   6 C    3.831 --    31 C    1.638    29 C    1.209    56 H    0.998
    31   6 C    3.855 --    30 C    1.638    32 C    1.203    57 H    0.993
    32   6 C    3.943 --     2 C    1.395    33 N    1.223    31 C    1.203
    33   7 N    3.119 --    29 C    1.227    32 C    1.223     1 Fe   0.871
    34   7 N    3.124 --    15 C    1.242    18 C    1.219     1 Fe   0.864
    35   6 C    3.895 --    43 C    1.423    36 C    1.421     8 C    1.044
    36   6 C    3.867 --    37 C    1.464    35 C    1.421    58 H    0.988
    37   6 C    3.897 --    36 C    1.464    38 C    1.400    59 H    0.986
    38   6 C    3.900 --    42 C    1.401    37 C    1.400    39 C    1.040
    39   6 C    4.098 --    41 O    1.816    40 O    1.210    38 C    1.040
    40   8 O    2.367 --    39 C    1.210    60 H    0.944    41 O    0.183
    41   8 O    2.031 --    39 C    1.816    40 O    0.183
    42   6 C    3.893 --    43 C    1.461    38 C    1.401    61 H    0.986
    43   6 C    3.869 --    42 C    1.461    35 C    1.423    62 H    0.988
    44   1 H    1.033 --     2 C    0.996
    45   1 H    1.025 --     4 C    0.993
    46   1 H    1.039 --     5 C    0.999
    47   1 H    1.039 --    10 C    0.998
    48   1 H    1.034 --    11 C    0.998
    49   1 H    1.035 --    16 C    0.998
    50   1 H    1.040 --    17 C    0.998
    51   1 H    1.051 --    21 C    0.988
    52   1 H    1.032 --    22 C    0.986
    53   1 H    0.980 --    25 O    0.944
    54   1 H    1.022 --    27 C    0.986
    55   1 H    1.052 --    28 C    0.988
    56   1 H    1.041 --    30 C    0.998
    57   1 H    1.025 --    31 C    0.993
    58   1 H    1.050 --    36 C    0.988
    59   1 H    1.032 --    37 C    0.986
    60   1 H    0.981 --    40 O    0.944
    61   1 H    1.022 --    42 C    0.986
    62   1 H    1.052 --    43 C    0.988
    63  26 Fe   4.347 --    95 N    0.872    69 N    0.871    74 N    0.865
                            96 N    0.864
    64   6 C    3.837 --    94 C    1.395    65 C    1.394   106 H    0.996
    65   6 C    3.943 --    64 C    1.394    69 N    1.223    66 C    1.204
    66   6 C    3.856 --    67 C    1.638    65 C    1.204   107 H    0.993
    67   6 C    3.831 --    66 C    1.638    68 C    1.209   108 H    0.999
    68   6 C    3.923 --    70 C    1.365    69 N    1.227    67 C    1.209
    69   7 N    3.120 --    68 C    1.227    65 C    1.223    63 Fe   0.871
    70   6 C    3.842 --    71 C    1.372    68 C    1.365    97 C    1.044
    71   6 C    3.914 --    70 C    1.372    74 N    1.216    72 C    1.214
    72   6 C    3.828 --    73 C    1.626    71 C    1.214   109 H    0.998
    73   6 C    3.848 --    72 C    1.626    75 C    1.225   110 H    0.998
    74   7 N    3.125 --    75 C    1.245    71 C    1.216    63 Fe   0.865
    75   6 C    3.922 --    76 C    1.307    74 N    1.245    73 C    1.225
    76   6 C    3.866 --    75 C    1.307    77 C    1.306   136 C    1.206
    77   6 C    3.923 --    76 C    1.306    96 N    1.243    78 C    1.226
    78   6 C    3.846 --    79 C    1.624    77 C    1.226   111 H    0.998
    79   6 C    3.827 --    78 C    1.624    80 C    1.216   112 H    0.998
    80   6 C    3.916 --    81 C    1.367    96 N    1.219    79 C    1.216
    81   6 C    3.843 --    80 C    1.367    91 C    1.365    82 C    1.051
    82   6 C    3.895 --    90 C    1.420    83 C    1.419    81 C    1.051
    83   6 C    3.865 --    84 C    1.465    82 C    1.419   113 H    0.988
    84   6 C    3.897 --    83 C    1.465    85 C    1.400   114 H    0.986
    85   6 C    3.899 --    84 C    1.400    89 C    1.400    86 C    1.040
    86   6 C    4.098 --    88 O    1.816    87 O    1.210    85 C    1.040
    87   8 O    2.367 --    86 C    1.210   115 H    0.944    88 O    0.183
    88   8 O    2.030 --    86 C    1.816    87 O    0.183
    89   6 C    3.893 --    90 C    1.463    85 C    1.400   116 H    0.986
    90   6 C    3.867 --    89 C    1.463    82 C    1.420   117 H    0.988
    91   6 C    3.924 --    81 C    1.365    95 N    1.227    92 C    1.209
    92   6 C    3.831 --    93 C    1.638    91 C    1.209   118 H    0.998
    93   6 C    3.855 --    92 C    1.638    94 C    1.203   119 H    0.993
    94   6 C    3.943 --    64 C    1.395    95 N    1.223    93 C    1.203
    95   7 N    3.119 --    91 C    1.227    94 C    1.223    63 Fe   0.872
    96   7 N    3.124 --    77 C    1.243    80 C    1.219    63 Fe   0.864
    97   6 C    3.895 --   105 C    1.423    98 C    1.421    70 C    1.044
    98   6 C    3.867 --    99 C    1.464    97 C    1.421   120 H    0.988
    99   6 C    3.897 --    98 C    1.464   100 C    1.400   121 H    0.986
   100   6 C    3.900 --   104 C    1.401    99 C    1.400   101 C    1.040
   101   6 C    4.098 --   103 O    1.816   102 O    1.210   100 C    1.040
   102   8 O    2.367 --   101 C    1.210   122 H    0.944   103 O    0.183
   103   8 O    2.030 --   101 C    1.816   102 O    0.183
   104   6 C    3.893 --   105 C    1.461   100 C    1.401   123 H    0.986
   105   6 C    3.869 --   104 C    1.461    97 C    1.423   124 H    0.988
   106   1 H    1.033 --    64 C    0.996
   107   1 H    1.025 --    66 C    0.993
   108   1 H    1.039 --    67 C    0.999
   109   1 H    1.039 --    72 C    0.998
   110   1 H    1.034 --    73 C    0.998
   111   1 H    1.035 --    78 C    0.998
   112   1 H    1.040 --    79 C    0.998
   113   1 H    1.051 --    83 C    0.988
   114   1 H    1.032 --    84 C    0.986
   115   1 H    0.980 --    87 O    0.944
   116   1 H    1.022 --    89 C    0.986
   117   1 H    1.052 --    90 C    0.988
   118   1 H    1.041 --    92 C    0.998
   119   1 H    1.025 --    93 C    0.993
   120   1 H    1.050 --    98 C    0.988
   121   1 H    1.032 --    99 C    0.986
   122   1 H    0.981 --   102 O    0.944
   123   1 H    1.022 --   104 C    0.986
   124   1 H    1.051 --   105 C    0.988
   125   6 C    3.843 --   126 C    2.394   129 C    1.344   128 C    0.176
   126   6 C    3.841 --   125 C    2.394   127 C    1.343   130 C    0.176
   127   6 C    3.830 --   128 C    2.495   126 C    1.343
   128   6 C    3.770 --   127 C    2.495    14 C    1.203   125 C    0.176
   129   6 C    3.828 --   130 C    2.492   125 C    1.344
   130   6 C    3.770 --   129 C    2.492   138 C    1.207   126 C    0.176
   131   6 C    3.841 --   132 C    2.390   135 C    1.346   134 C    0.176
   132   6 C    3.843 --   131 C    2.390   133 C    1.347   136 C    0.176
   133   6 C    3.828 --   134 C    2.488   132 C    1.347
   134   6 C    3.769 --   133 C    2.488   150 C    1.209   131 C    0.176
   135   6 C    3.829 --   136 C    2.491   131 C    1.346
   136   6 C    3.769 --   135 C    2.491    76 C    1.206   132 C    0.176
   137  26 Fe   4.346 --   169 N    0.872   148 N    0.872   143 N    0.868
                           170 N    0.868
   138   6 C    3.860 --   168 C    1.306   139 C    1.302   130 C    1.207
   139   6 C    3.922 --   138 C    1.302   143 N    1.241   140 C    1.229
   140   6 C    3.844 --   141 C    1.620   139 C    1.229   180 H    0.998
   141   6 C    3.828 --   140 C    1.620   142 C    1.219   181 H    0.998
   142   6 C    3.913 --   144 C    1.362   141 C    1.219   143 N    1.217
   143   7 N    3.119 --   139 C    1.241   142 C    1.217   137 Fe   0.868
   144   6 C    3.839 --   145 C    1.366   142 C    1.362   171 C    1.055
   145   6 C    3.913 --   144 C    1.366   146 C    1.217   148 N    1.215
   146   6 C    3.828 --   147 C    1.623   145 C    1.217   182 H    0.998
   147   6 C    3.845 --   146 C    1.623   149 C    1.227   183 H    0.998
   148   7 N    3.120 --   149 C    1.241   145 C    1.215   137 Fe   0.872
   149   6 C    3.921 --   150 C    1.305   148 N    1.241   147 C    1.227
   150   6 C    3.860 --   149 C    1.305   151 C    1.301   134 C    1.209
   151   6 C    3.921 --   150 C    1.301   170 N    1.242   152 C    1.229
   152   6 C    3.844 --   153 C    1.620   151 C    1.229   184 H    0.998
   153   6 C    3.828 --   152 C    1.620   154 C    1.219   185 H    0.998
   154   6 C    3.913 --   155 C    1.362   153 C    1.219   170 N    1.216
   155   6 C    3.838 --   165 C    1.365   154 C    1.362   156 C    1.055
   156   6 C    3.894 --   164 C    1.418   157 C    1.417   155 C    1.055
   157   6 C    3.865 --   158 C    1.465   156 C    1.417   186 H    0.988
   158   6 C    3.897 --   157 C    1.465   159 C    1.400   187 H    0.985
   159   6 C    3.899 --   158 C    1.400   163 C    1.400   160 C    1.040
   160   6 C    4.098 --   162 O    1.816   161 O    1.210   159 C    1.040
   161   8 O    2.367 --   160 C    1.210   188 H    0.944   162 O    0.183
   162   8 O    2.030 --   160 C    1.816   161 O    0.183
   163   6 C    3.893 --   164 C    1.463   159 C    1.400   189 H    0.986
   164   6 C    3.865 --   163 C    1.463   156 C    1.418   190 H    0.988
   165   6 C    3.913 --   155 C    1.365   166 C    1.217   169 N    1.216
   166   6 C    3.828 --   167 C    1.623   165 C    1.217   191 H    0.998
   167   6 C    3.845 --   166 C    1.623   168 C    1.227   192 H    0.998
   168   6 C    3.921 --   138 C    1.306   169 N    1.241   167 C    1.227
   169   7 N    3.119 --   168 C    1.241   165 C    1.216   137 Fe   0.872
   170   7 N    3.119 --   151 C    1.242   154 C    1.216   137 Fe   0.868
   171   6 C    3.893 --   179 C    1.418   172 C    1.417   144 C    1.055
   172   6 C    3.865 --   173 C    1.465   171 C    1.417   193 H    0.988
   173   6 C    3.897 --   172 C    1.465   174 C    1.400   194 H    0.985
   174   6 C    3.899 --   173 C    1.400   178 C    1.400   175 C    1.040
   175   6 C    4.098 --   177 O    1.817   176 O    1.210   174 C    1.040
   176   8 O    2.367 --   175 C    1.210   195 H    0.944   177 O    0.184
   177   8 O    2.031 --   175 C    1.817   176 O    0.184
   178   6 C    3.893 --   179 C    1.463   174 C    1.400   196 H    0.986
   179   6 C    3.865 --   178 C    1.463   171 C    1.418   197 H    0.988
   180   1 H    1.035 --   140 C    0.998
   181   1 H    1.039 --   141 C    0.998
   182   1 H    1.039 --   146 C    0.998
   183   1 H    1.035 --   147 C    0.998
   184   1 H    1.035 --   152 C    0.998
   185   1 H    1.039 --   153 C    0.998
   186   1 H    1.051 --   157 C    0.988
   187   1 H    1.031 --   158 C    0.985
   188   1 H    0.981 --   161 O    0.944
   189   1 H    1.022 --   163 C    0.986
   190   1 H    1.051 --   164 C    0.988
   191   1 H    1.039 --   166 C    0.998
   192   1 H    1.035 --   167 C    0.998
   193   1 H    1.051 --   172 C    0.988
   194   1 H    1.031 --   173 C    0.985
   195   1 H    0.980 --   176 O    0.944
   196   1 H    1.022 --   178 C    0.986
   197   1 H    1.050 --   179 C    0.988
 ---------------------------------------------------------------------------

Topologies differ in total number of bonds
Writing topology from bond orders to xtbtopo.mol

 dipole moment from electron density (au)
     X       Y       Z   
 -93.4391   2.2277  -0.7611  total (Debye):  237.574


           -------------------------------------------------
          | TOTAL ENERGY             -417.914696497655 Eh   |
          | GRADIENT NORM               0.162204464399 Eh/α |
          | HOMO-LUMO GAP               0.001319017039 eV   |
           -------------------------------------------------
########################################################################
[WARNING] Runtime exception occurred
-1- restart_readRestart: Dimension missmatch in restart file.
########################################################################

------------------------------------------------------------------------
 * finished run on 2022/07/29 at 22:11:47.073     
------------------------------------------------------------------------
 total:
 * wall-time:     0 d,  0 h,  0 min, 45.291 sec
 *  cpu-time:     0 d,  0 h,  0 min, 45.038 sec
 * ratio c/w:     0.994 speedup
 SCF:
 * wall-time:     0 d,  0 h,  0 min, 44.753 sec
 *  cpu-time:     0 d,  0 h,  0 min, 44.506 sec
 * ratio c/w:     0.994 speedup

