111
 energy: -192.290223146890 gnorm: 1.673535609880 xtb: 6.5.1 (b24c23e)
Zn          18.11076700000000        0.02821600000000        0.02933000000000
C           14.73711000000000       -0.08141600000000       -0.08072200000000
C           15.41001600000000       -0.89620000000000       -0.89917400000000
C           14.78131500000000       -1.82662300000000       -1.83370100000000
C           15.74213700000000       -2.46792900000000       -2.47788400000000
C           17.02525899999999       -1.97421900000000       -1.98202900000000
N           16.83107400000000       -0.97865800000000       -0.98205100000000
C           18.21349800000000       -2.40509200000000       -2.41479000000000
C           19.51318200000000       -1.91367300000000       -1.92114300000000
C           20.79286400000000       -2.41186700000000       -2.42126700000000
C           21.74861400000000       -1.77062800000000       -1.77715600000000
N           19.66680000000000       -1.00473500000000       -1.00832400000000
C           21.07808900000000       -0.85488800000000       -0.85763400000000
C           21.68681900000000       -0.00847500000000       -0.00753300000000
C           20.93900400000000        0.89745600000000        0.90220500000000
C           21.51040900000000        1.74444000000000        1.75280400000000
C           20.44831900000000        2.44179900000000        2.45320200000000
C           19.30196100000000        1.97567700000000        1.98511100000000
N           19.51443400000000        0.97905900000000        0.98418700000000
C           17.98666600000000        2.44608300000000        2.45769200000000
C           16.81979200000000        1.98866200000000        1.99836000000000
C           15.51197600000000        2.43796600000000        2.44984400000000
C           14.63094900000000        1.74333100000000        1.75223000000000
C           15.37785800000000        0.85454100000000        0.85935900000000
N           16.65920700000000        0.99132000000000        0.99657900000000
H           13.65399800000000       -0.10394100000000       -0.10327400000000
H           13.71989700000000       -1.97633500000000       -1.98402800000000
H           15.58847200000000       -3.22390200000000       -3.23718700000000
H           18.23319600000000       -3.16957600000000       -3.18263100000000
H           20.94374400000000       -3.16799800000000       -3.18056200000000
H           22.81028700000000       -1.91741200000000       -1.92435500000000
H           22.57004100000000        1.89669100000000        1.90569900000000
H           20.56812700000000        3.20090800000000        3.21561700000000
H           17.97003600000000        3.21097300000000        3.22598200000000
H           15.28823800000000        3.18504600000000        3.20031200000000
H           13.55529100000000        1.82628600000000        1.83572700000000
Zn          41.17097499999999       -0.06042200000000       -0.00494700000000
C           44.54463200000000        0.09473000000000       -0.01260500000000
C           43.87172600000000        1.24818100000000       -0.06991900000000
C           44.50042700000000        2.56528100000000       -0.13530500000000
C           43.53960400000000        3.47314200000000       -0.18041000000000
C           42.25648300000000        2.77427200000000       -0.14573800000000
N           42.45066799999999        1.36494600000000       -0.07575500000000
C           41.06824400000000        3.38420400000000       -0.17600900000000
C           39.76856000000000        2.68851400000000       -0.14142900000000
C           38.48887700000000        3.39357400000000       -0.17624300000000
C           37.53312699999999        2.48581100000000       -0.13114700000000
N           39.61494200000000        1.40191400000000       -0.07764700000000
C           38.20365300000000        1.18966900000000       -0.06698200000000
C           37.59492300000000       -0.00847500000000       -0.00753300000000
C           38.34273700000000       -1.29077800000000        0.05599200000000
C           37.77133300000000       -2.48968100000000        0.11542500000000
C           38.83342300000000       -3.47683300000000        0.16440500000000
C           39.97978100000000       -2.81705200000000        0.13171200000000
N           39.76730700000000       -1.40630700000000        0.06174100000000
C           41.29507600000000       -3.48302300000000        0.16484400000000
C           42.46195000000000       -2.83557300000000        0.13277800000000
C           43.76976500000000       -3.47173800000000        0.16450000000000
C           44.65079300000000       -2.48847400000000        0.11574600000000
C           43.90388399999999       -1.23020200000000        0.05316700000000
N           42.62253500000000       -1.42371600000000        0.06265900000000
H           45.62774300000000        0.12656700000000       -0.01413400000000
H           45.56184499999999        2.77718200000000       -0.14579300000000
H           43.69326899999999        4.54328800000000       -0.23353300000000
H           41.04854600000000        4.46639200000000       -0.22972200000000
H           38.33799699999999        4.46383200000000       -0.22925400000000
H           36.47145400000000        2.69344200000000       -0.14129000000000
H           36.71170099999999       -2.70518800000000        0.12610400000000
H           38.71361500000000       -4.55139300000000        0.21772100000000
H           41.31170600000000       -4.56581300000000        0.21861700000000
H           43.99350399999999       -4.52936100000000        0.21707100000000
H           45.72645000000000       -2.60602400000000        0.12170700000000
C           23.86073200000000       -0.00847500000000       -0.00753300000000
C           25.08265000000000       -0.00847500000000       -0.00753300000000
C           34.19909200000000       -0.00847500000000       -0.00753300000000
C           35.42101000000000       -0.00847500000000       -0.00753300000000
Zn          29.60662600000000       -0.03581800000000       -0.03185500000000
C           26.17317400000000        0.01840400000000        0.01635800000000
C           26.83970800000000        0.89183700000000        0.79358900000000
C           26.21539400000000        1.88382800000000        1.67627800000000
C           27.17376600000000        2.56239500000000        2.28015600000000
C           28.45497500000000        2.04216600000000        1.81728800000000
N           28.26288500000000        0.98658800000000        0.87797400000000
C           29.63736000000000        2.50721800000000        2.23116400000000
C           30.94703500000000        2.00403000000000        1.78343100000000
C           32.21367800000000        2.54895800000000        2.26844000000000
C           33.18585800000000        1.88352600000000        1.67627300000000
N           31.12301200000000        1.04458900000000        0.92957600000000
C           32.53822700000000        0.90586800000000        0.80617500000000
C           33.16727600000000        0.01840400000000        0.01635800000000
C           32.43735300000000       -0.94713200000000       -0.84294700000000
C           33.02409600000000       -1.83793100000000       -1.63582000000000
C           31.97402500000000       -2.58525600000000       -2.30082700000000
C           30.81984500000000       -2.10186600000000       -1.87049400000000
N           31.01415600000000       -1.04573500000000       -0.93056100000000
C           29.51476700000000       -2.61185000000000       -2.32416700000000
C           28.33558400000000       -2.14417900000000       -1.90791700000000
C           27.04847200000000       -2.64612600000000       -2.35444600000000
C           26.14190300000000       -1.93049100000000       -1.71765100000000
C           26.84959300000000       -0.96808400000000       -0.86139300000000
N           28.13709800000000       -1.09016700000000       -0.97009800000000
H           25.15802400000000        2.05455100000000        1.82814300000000
H           27.01850200000000        3.36272700000000        2.99232900000000
H           29.64376900000000        3.31688200000000        2.95165900000000
H           32.34482300000000        3.35137800000000        2.98255900000000
H           34.24366200000000        2.05291600000000        1.82706100000000
H           34.08640100000000       -1.98903200000000       -1.77039700000000
H           32.10661600000000       -3.38783600000000       -3.01510100000000
H           29.51629600000000       -3.42196500000000       -3.04502900000000
H           26.85397200000000       -3.44159500000000       -3.06221500000000
H           25.07254200000000       -2.05146500000000       -1.82522400000000
111
 energy: -192.748795722907 gnorm: 0.460181949711 xtb: 6.5.1 (b24c23e)
Zn          18.11373530317834        0.02689552753894        0.02801916296342
C           14.73781451316997       -0.07193056152639       -0.07119072495799
C           15.41567800241906       -0.89765375878821       -0.90063043432319
C           14.77981029424564       -1.82330799523328       -1.83036739575972
C           15.74700152962341       -2.46892130641986       -2.47887766761684
C           17.02290707219436       -1.97047919368689       -1.97826840308104
N           16.81613463895619       -0.98968870268537       -0.99312804440423
C           18.22700240541731       -2.40367579026125       -2.41336469337906
C           19.50772579519288       -1.92273675643341       -1.93024561700961
C           20.78527859126763       -2.41686109012951       -2.42627679088319
C           21.74994932682031       -1.76712906538480       -1.77364601774770
N           19.67849614749566       -1.00339818524255       -1.00698402716126
C           21.08755430870476       -0.85349377546052       -0.85621970666598
C           21.70177266405400       -0.00019148342107        0.00075862300958
C           20.93885222860503        0.88776616630883        0.89246667353486
C           21.51238287789289        1.75716864280170        1.76558911885183
C           20.46761092849195        2.44311799034777        2.45452560941466
C           19.29102068499595        1.96843221193309        1.97784141973750
N           19.52337556785109        0.98315943731722        0.98830554530432
C           17.99861337410497        2.44115322271368        2.45274281579425
C           16.81789192508657        1.98779261262729        1.99749031167067
C           15.51598717648565        2.43798016426781        2.44986120743854
C           14.62362760354212        1.73759435674882        1.74647205641784
C           15.36273434485059        0.84963562714660        0.85443680447587
N           16.65795814900694        0.99843024531123        1.00371829755283
H           13.65432974289867       -0.10192611582407       -0.10124607342664
H           13.71961755805996       -1.97332588355543       -1.98100162834314
H           15.59276543472655       -3.22398274124408       -3.23726505896392
H           18.23628883738711       -3.16908549610852       -3.18213513440813
H           20.94024772303918       -3.16951784408995       -3.18208602252382
H           22.81032368067491       -1.91392156133782       -1.92086777243888
H           22.57093072806525        1.89864175934096        1.90766055672858
H           20.57178625282091        3.20096746028072        3.21567785345331
H           17.97460938424533        3.20900772404357        3.22401046380655
H           15.29239932395691        3.18462144885229        3.19988840281549
H           13.55307488838511        1.82375079310918        1.83318442428787
Zn          41.16807994980567       -0.05858679869411       -0.00503909154491
C           44.54390911223526        0.08132904581767       -0.01193588624551
C           43.86609052919118        1.25023114713790       -0.07001878664434
C           44.50193336836313        2.56059672582615       -0.13506884291463
C           43.53475332317171        3.47453751510737       -0.18047671869278
C           42.25885592585718        2.76891355543927       -0.14546697067278
N           42.46556425427995        1.38059182430819       -0.07652396343210
C           41.05466492735741        3.38217046586665       -0.17590392993820
C           39.77406526566398        2.70135305390353       -0.14207934218822
C           38.49638804080236        3.40062264085571       -0.17658033511255
C           37.53157825387872        2.48100271175111       -0.13089854613538
N           39.60329518729735        1.39999337117089       -0.07753315942134
C           38.19424027244986        1.18789766928643       -0.06683509585946
C           37.58151720265285       -0.01993407332639       -0.00686471385858
C           38.34294701821825       -1.27717449376867        0.05526194167565
C           37.76925875826164       -2.50777913602202        0.11632044578509
C           38.81409291300730       -3.47866343086825        0.16449532847227
C           39.99070892542102       -2.80678136744074        0.13121034631721
N           39.75845423245961       -1.41205195067083        0.06204016013930
C           41.28312119078313       -3.47602714268637        0.16449879882982
C           42.46384822145352       -2.83434111351188        0.13271799527371
C           43.76576682025815       -3.47175906782345        0.16450446840991
C           44.65810930695766       -2.48037319207603        0.11534792526512
C           43.91898816732053       -1.22328292114988        0.05282658296346
N           42.62378104199934       -1.43377163056828        0.06316032584091
H           45.62739960725202        0.12371590122849       -0.01398891981456
H           45.56211734520129        2.77292034713648       -0.14557792390345
H           43.68897176948786        4.54339068876804       -0.23353562607404
H           41.04543451411691        4.46567399013996       -0.22968421434057
H           38.34148294931803        4.46595871172806       -0.22935542182418
H           36.47125546476880        2.68848270180186       -0.14103695758580
H           36.71081685975619       -2.70792022122678        0.12622716363800
H           38.70994976825055       -4.55144238950733        0.21772293764514
H           41.30712357219738       -4.56301651313526        0.21847857141655
H           43.98934189775959       -4.52875462985086        0.21704331861087
H           45.72865689678736       -2.60243661127616        0.12153209438665
C           23.77302689957239       -0.00811231446861       -0.00719581628604
C           24.97024700649897       -0.01419341595924       -0.01260920367280
C           34.33803685726826       -0.01797624276095       -0.01585494775960
C           35.52530531774718       -0.00998926234500       -0.00878232019239
Zn          29.60848851221908       -0.03545410332383       -0.03150605348672
C           26.24874454650458        0.01047253634595        0.00929022545613
C           26.87027091041590        0.90290443661552        0.80344439214280
C           26.21507077703827        1.87809383376023        1.67117518226207
C           27.17974320556021        2.56407650721027        2.28165476396359
C           28.45323552572940        2.04021558349288        1.81555055768176
N           28.25507933668781        1.00126152217778        0.89102030502267
C           29.65083341185421        2.50750369836382        2.23141339208920
C           30.93850776592850        2.01837973210454        1.79622769947210
C           32.20410303120845        2.55556800779886        2.27431070932209
C           33.18362380321606        1.87802620335490        1.67134504218110
N           31.12286893206651        1.04883148506427        0.93334049192541
C           32.50311248101753        0.91909450489665        0.81787480755122
C           33.05806883344593        0.01308713019942        0.01150031546813
C           32.40407040396896       -0.94714510688880       -0.84291819197484
C           33.02294380925949       -1.85049748099619       -1.64699146943699
C           31.99241125866239       -2.58749233214368       -2.30281845406102
C           30.80702938001218       -2.09688894425649       -1.86606290538893
N           31.01299029017694       -1.05469969444955       -0.93854353900027
C           29.52654546390915       -2.60767189684149       -2.32045191805663
C           28.33495347128074       -2.14490349263887       -1.90855509983231
C           27.05292444686955       -2.64648208248742       -2.35476667138459
C           26.13563068498116       -1.92318232311744       -1.71114303267138
C           26.85436165950393       -0.97017797822413       -0.86326301022386
N           28.14376603497744       -1.10096623658364       -0.97971429514791
H           25.15762160744641        2.04963996401000        1.82377724680031
H           27.02257560579054        3.36286536016260        2.99245445249193
H           29.64651571994882        3.31699438699654        2.95175833254135
H           32.34160167203382        3.35330413641718        2.98427024022995
H           34.24278526747395        2.04782998925506        1.82252629151979
H           34.08632196674156       -1.98978945906209       -1.77104913887935
H           32.11056132750254       -3.38814450054218       -3.01537473340620
H           29.52058356145947       -3.42026311366839       -3.04351434442274
H           26.85786048556207       -3.44108747755735       -3.06176315987514
H           25.07038486650391       -2.04759302743830       -1.82176223559180
111
 energy: -192.905222584238 gnorm: 0.280063064987 xtb: 6.5.1 (b24c23e)
Zn          18.12124355215490        0.02283693293498        0.02400401894630
C           14.73862131768524       -0.06013903302058       -0.05935375887658
C           15.41826329679443       -0.89816807168708       -0.90115348699360
C           14.77985237761647       -1.81848502476030       -1.82552984664905
C           15.75490815297577       -2.46898147758314       -2.47894543318306
C           17.02310117888480       -1.96812743377561       -1.97591125007952
N           16.79453193332370       -1.00532815297191       -1.00884207690993
C           18.24730709324861       -2.39863999303939       -2.40831374854647
C           19.50915729512120       -1.93080644666411       -1.93836325265394
C           20.77907259387289       -2.42247867959935       -2.43191581178657
C           21.75196188039183       -1.76516417064920       -1.77169615802028
N           19.70892535495058       -1.00009809117562       -1.00369010098235
C           21.11387120088218       -0.84993912253071       -0.85260637814894
C           21.74771119175671        0.01130174357357        0.01242114831972
C           20.95741919842189        0.87937691682041        0.88403155810955
C           21.52102349999732        1.77406637104051        1.78255188984408
C           20.49605249349601        2.44188086461566        2.45327010828759
C           19.29312664780756        1.95676644128462        1.96612580073358
N           19.55000483203721        0.98475323775653        0.98989110211530
C           18.02206856184335        2.42750433053379        2.43902877676375
C           16.81738995539522        1.98383583278217        1.99350709886969
C           15.51996054598557        2.43350560873463        2.44535855668327
C           14.61276892358538        1.73046171893313        1.73929957551999
C           15.34121847341897        0.84529749630300        0.85006946586595
N           16.65180559831576        1.00670240038385        1.01199736111451
H           13.65526489623191       -0.09593347166999       -0.09523294789792
H           13.71936214448928       -1.96446973581830       -1.97211446869568
H           15.60592634563123       -3.22394840620563       -3.23723945161473
H           18.24763971046170       -3.16531105140320       -3.17834742356422
H           20.93085707984126       -3.17447872603980       -3.18707164186091
H           22.81169840372937       -1.90679718747415       -1.91379337449824
H           22.57859404361920        1.90751427329520        1.91657317719536
H           20.58326675634548        3.20049309009678        3.21519274894843
H           17.99431301878202        3.19786699885834        3.21281314619702
H           15.30452791208300        3.18139849701248        3.19664185850107
H           13.54426751792156        1.81724274754053        1.82663942428594
Zn          41.16056049210472       -0.05291455000762       -0.00531901920429
C           44.54309024724941        0.06464803332547       -0.01111049416649
C           43.86350563711036        1.25096842522157       -0.07005851322979
C           44.50188300489045        2.55377833588518       -0.13473302317837
C           43.52681801867340        3.47461762631334       -0.18048174969536
C           42.25862304845661        2.76553916438055       -0.14530110161066
N           42.48713807324167        1.40274061163534       -0.07761372999204
C           41.03425851272971        3.37495659088081       -0.17555397430443
C           39.77252253943581        2.71261387336157       -0.14263582698408
C           38.50240480081150        3.40840310652871       -0.17691456964875
C           37.52911570577545        2.47820146645915       -0.13070363073485
N           39.57251505515844        1.39515981388363       -0.07720712731052
C           38.16742606007589        1.18250963988779       -0.06653575519416
C           37.53414601722952       -0.03720234524077       -0.00652942582046
C           38.32431990242653       -1.26548465580178        0.05447874568693
C           37.76054282554675       -2.53186095754722        0.11745310387142
C           38.78564136190924       -3.47687170011826        0.16439700912136
C           39.98865383168904       -2.79022515914803        0.13040719463178
N           39.73180855625932       -1.41426449490841        0.06217144567799
C           41.25963488191304       -3.45667480656773        0.16354020585172
C           42.46435870394829       -2.82871461130001        0.13243258801180
C           43.76178747100037       -3.46541730581335        0.16418650603783
C           44.66897299312926       -2.47026872216495        0.11484318140623
C           43.94050805390381       -1.21714455347237        0.05251563522426
N           42.62994016650615       -1.44546275996235        0.06372749950885
H           45.62645309973342        0.11523862994546       -0.01357182242008
H           45.56236782410089        2.76039376662721       -0.14496129191788
H           43.67578947679606        4.54333837382962       -0.23353922767180
H           41.03404099630713        4.46026529424288       -0.22942290335809
H           38.35084758535172        4.47288036568852       -0.22969511830123
H           36.46937647595180        2.67839340046536       -0.14054876155553
H           36.70312756148704       -2.72051675139907        0.12680132251050
H           38.69847951166589       -4.55072313717121        0.21768077693386
H           41.28740284720610       -4.54721498225502        0.21768464416313
H           43.97720389266249       -4.52418363224348        0.21681069042867
H           45.73746622667058       -2.59321490126383        0.12106952594909
C           23.63877972552799        0.00215697404651        0.00284822766216
C           24.87251642916774       -0.01589873847532       -0.01402442860465
C           34.41717894574064       -0.03160549258442       -0.02707169371249
C           35.65403483656475       -0.02183648766598       -0.00831076143658
Zn          29.60990035632140       -0.03294616622699       -0.02921312038915
C           26.22123941863782       -0.00381112925664       -0.00344742594624
C           26.86617834535006        0.90420401722475        0.80460423165611
C           26.21422400375254        1.87248817816520        1.66618835134345
C           27.18660933859842        2.56460253767394        2.28212603445200
C           28.45306884151075        2.04110620528755        1.81633578169828
N           28.23240357357506        1.02014714840705        0.90780070717071
C           29.66710865395345        2.50967284891590        2.23334525240259
C           30.93120296286342        2.03764893387328        1.81340684157409
C           32.19405864038490        2.56531584480792        2.28295274168872
C           33.17751941846857        1.87654601835792        1.66994882784894
N           31.13554537766603        1.05619053672682        0.93980968984197
C           32.50636838558819        0.92181675308041        0.81997388746190
C           33.07741203231842       -0.00381934478608       -0.00393331007795
C           32.39707078568848       -0.94439917388203       -0.84053638288934
C           33.02363169938199       -1.86901580572656       -1.66336597587314
C           32.01741196791247       -2.58920842081128       -2.30431367685557
C           30.80141985861262       -2.09243952822953       -1.86210049596502
N           31.02112807397059       -1.06568072578007       -0.94833965306394
C           29.54706318617566       -2.59911600638732       -2.31284446811183
C           28.33522455526402       -2.14382182792752       -1.90758702219419
C           27.05638471512525       -2.64213589659165       -2.35090876202782
C           26.12489240505236       -1.91525227167128       -1.70407154179008
C           26.83152651645728       -0.96781999479401       -0.86119567339912
N           28.14090062465345       -1.11255247591333       -0.99004182458397
H           25.15690239150412        2.03802382473796        1.81344493518065
H           27.03464892444502        3.36320898504252        2.99276401842698
H           29.65419235594209        3.31888238822824        2.95344072307913
H           32.33287021289333        3.36127467433815        2.99136871173010
H           34.23760770751591        2.03757702801993        1.81336915326489
H           34.08723223721147       -1.99640732219325       -1.77685924489652
H           32.12267099317241       -3.38981288058331       -3.01684556657653
H           29.53766746376117       -3.41298167167670       -3.03703489346267
H           26.86894372186848       -3.43769805849582       -3.05875032335771
H           25.06210187919438       -2.03878919588365       -1.81386508532384
111
 energy: -193.019639835607 gnorm: 0.125768736276 xtb: 6.5.1 (b24c23e)
Zn          18.13708740217062        0.01859299606939        0.01975200526775
C           14.74059499056607       -0.04974841643714       -0.04892492235722
C           15.42032626816112       -0.90189296546013       -0.90489824546372
C           14.77986403891683       -1.81513048082822       -1.82216432011352
C           15.76242592733706       -2.46971278079010       -2.47968297393300
C           17.02041807381383       -1.96595203430422       -1.97372878179075
N           16.77253265928915       -1.02115773901147       -1.02474951665196
C           18.26952491723496       -2.38944119121758       -2.39908438444343
C           19.51489326552225       -1.93487780083903       -1.94244319192047
C           20.77644148378768       -2.42547087563302       -2.43491376818297
C           21.75673616411589       -1.76457462517653       -1.77112409019499
N           19.75086822812744       -0.99002368514990       -0.99350884247621
C           21.14744867293037       -0.84738474852348       -0.84999979995421
C           21.83265121990092        0.02223077277023        0.02327062486626
C           20.99335807983122        0.86857387008045        0.87309900736407
C           21.53604810300799        1.79361839184746        1.80217292917626
C           20.52979277488533        2.44019930400114        2.45157395591866
C           19.30034290010638        1.94180511032055        1.95110742730376
N           19.59349513279299        0.98473720283744        0.98987141230091
C           18.05147379379210        2.40881376140675        2.42025114565468
C           16.81656491410661        1.97686390441528        1.98649678251819
C           15.52544086317661        2.42822222252784        2.44004612473999
C           14.60519153665475        1.72513398024930        1.73394189915718
C           15.31981371155081        0.84157932824427        0.84632978755385
N           16.64951118559053        1.01610712991717        1.02143618001190
H           13.65672971627320       -0.09219097607724       -0.09147834277271
H           13.71882134259895       -1.95559391944468       -1.96320577340026
H           15.62018644328481       -3.22456458849080       -3.23786505465464
H           18.25975864770098       -3.15805701069643       -3.17106444957254
H           20.92199416664937       -3.17831243557189       -3.19092934698156
H           22.81645146803733       -1.90146985407078       -1.90855895110545
H           22.59412327252883        1.91793745202053        1.92703941213947
H           20.59350080235591        3.20044925609325        3.21513977920353
H           18.01912495991005        3.18148005650147        3.19634482854264
H           15.31865509200960        3.17745842696771        3.19267582551302
H           13.53651671174791        1.81168272690318        1.82104680616666
Zn          41.14477410515865       -0.04694613448089       -0.00563433084941
C           44.54109639841198        0.04992229338208       -0.01037914701474
C           43.86142920915043        1.25624461715201       -0.07031773279606
C           44.50185442096429        2.54903160642428       -0.13449716092077
C           43.51928042388180        3.47565723250833       -0.18053459609409
C           42.26127843831055        2.76247949515378       -0.14513874684662
N           42.50913586620525        1.42516821707153       -0.07871349144285
C           41.01202571778283        3.36198334006529       -0.17492416589740
C           39.76678423504194        2.71844783206685       -0.14295490092989
C           38.50483899420720        3.41254175308607       -0.17707106682288
C           37.52408029336719        2.47732467404126       -0.13052995569629