209
 energy: -324.460011873872 gnorm: 35.755990389106 xtb: 6.5.1 (b24c23e)
Fe          33.20638700000000        1.97203400000000        1.62137700000000
C           29.45529500000000        0.07855000000000       -0.03826300000000
C           30.10492800000000        0.93175200000000        0.75884500000000
C           29.44022100000000        1.85039100000000        1.67518500000000
C           30.37042700000000        2.56354900000000        2.28245000000000
C           31.68265800000000        2.14256000000000        1.77233500000000
N           31.52085900000000        1.09838300000000        0.81144400000000
C           32.86807000000000        2.67284900000000        2.13891500000000
C           32.90193300000000        3.78633200000000        3.11480600000000
C           32.41413200000000        5.05343800000000        2.76413600000000
C           32.46233100000000        6.10529100000000        3.68284400000000
C           33.00338700000000        5.91084000000000        4.96362500000000
N           33.03984200000000        7.01416200000000        5.88762000000000
C           33.58125500000000        6.91661600000000        7.23914100000000
C           33.49880800000000        4.63856100000000        5.30911300000000
C           33.44920700000000        3.58679200000000        4.38972900000000
C           34.16720900000000        2.19432900000000        1.59730200000000
C           35.44401200000000        2.88841200000000        1.80511800000000
C           36.38846500000000        2.17867600000000        1.22184800000000
N           34.32336800000000        1.10469100000000        0.90979500000000
C           35.72147500000000        1.02415700000000        0.63259900000000
C           36.32825700000000        0.01278500000000       -0.00962700000000
C           35.57763700000000       -1.12069100000000       -0.59412000000000
C           36.11937000000000       -2.28811700000000       -0.91750900000000
C           35.08730400000000       -3.07941000000000       -1.55892800000000
C           33.98434399999999       -2.34033600000000       -1.58922300000000
N           34.20401099999999       -1.06733100000000       -0.97954200000000
C           32.71379000000000       -2.75601200000000       -2.23684400000000
C           32.75234300000000       -3.85703900000000       -3.23005600000000
C           33.49805900000000       -3.71366300000000       -4.40871900000000
C           33.55509100000000       -4.75446300000000       -5.34006800000000
C           32.86920300000000       -5.96122600000000       -5.10284900000000
N           32.90794400000000       -7.05157400000000       -6.04203300000000
C           33.64466900000000       -7.00592700000000       -7.30075100000000
C           32.13163400000000       -6.10233000000000       -3.91687700000000
C           32.07592900000000       -5.06160500000000       -2.98603100000000
C           31.54502600000000       -2.15374200000000       -1.94446700000000
C           30.24465000000000       -2.45051200000000       -2.54301700000000
C           29.37235200000000       -1.67425700000000       -1.92945200000000
C           30.10710500000000       -0.87355300000000       -0.95153700000000
N           31.37398600000000       -1.14457100000000       -0.95142800000000
H           28.37169600000000        0.08152800000000       -0.01979400000000
H           28.37478100000000        1.93983600000000        1.84426900000000
H           30.17106200000000        3.32255500000000        3.02753200000000
H           31.99840300000000        5.22548500000000        1.77881900000000
H           32.07854800000000        7.07585100000000        3.39455600000000
H           32.66026300000000        7.93990400000000        5.58440600000000
H           34.65356899999999        6.63181600000000        7.19736600000000
H           33.01125300000000        6.16244600000000        7.82140100000000
H           33.49528300000000        7.89825200000000        7.75121300000000
H           33.92531999999999        4.45066500000000        6.28487300000000
H           33.83630500000000        2.61501800000000        4.67123600000000
H           35.60386800000000        3.81731500000000        2.33661800000000
H           37.44063900000000        2.42962600000000        1.20254200000000
H           37.14609800000000       -2.59087400000000       -0.76127400000000
H           35.20662299999999       -4.07697600000000       -1.96143900000000
H           34.03312099999999       -2.79293600000000       -4.60731800000000
H           34.13644400000000       -4.60944200000000       -6.24024900000000
H           32.38292700000000       -7.92809800000000       -5.82053500000000
H           33.25629800000000       -6.18282300000000       -7.93665600000000
H           33.51813400000000       -7.96483400000000       -7.84638000000000
H           34.72593699999999       -6.85243100000000       -7.10074700000000
H           31.60037300000000       -7.02318200000000       -3.71144800000000
H           31.50885100000000       -5.19502300000000       -2.07284700000000
H           30.01433500000000       -3.15613900000000       -3.33029400000000
H           28.30912400000000       -1.64252400000000       -2.12814100000000
Fe          65.80343800000000       -2.00642600000000       -1.56578300000000
C           69.55452900000000        0.02638100000000       -0.08005600000000
C           68.90489599999999       -0.93768800000000       -0.73877100000000
C           69.56960300000000       -2.03239500000000       -1.43532900000000
C           68.63939699999999       -2.78063800000000       -1.99879900000000
C           67.32716600000001       -2.19095500000000       -1.69926000000000
N           67.48896499999999       -1.02537900000000       -0.88991000000000
C           66.14175400000001       -2.66441000000000       -2.13678400000000
C           66.10789100000000       -3.85974800000000       -3.01049800000000
C           66.59569200000000       -3.79401000000000       -4.32358800000000
C           66.54749400000000       -4.92009500000000       -5.14963400000000
C           66.00643700000001       -6.12758600000000       -4.68040300000000
N           65.96998200000000       -7.27005900000000       -5.55552400000000
C           65.42856900000000       -8.56773100000000       -5.16542800000000
C           65.51101600000000       -6.18713800000000       -3.36339500000000
C           65.56061699999999       -5.06041200000000       -2.53757900000000
C           64.84261500000000       -2.03143600000000       -1.78797500000000
C           63.56581199999999       -2.38569300000000       -2.41998800000000
C           62.62135900000000       -1.66161300000000       -1.85462300000000
N           64.68645600000001       -1.12273700000000       -0.87460600000000
C           63.28834899999999       -0.83464800000000       -0.85649700000000
C           62.68156700000000        0.01278500000000       -0.00962700000000
C           63.43218700000000        0.83051700000000        0.96900100000000
C           62.89045400000000        1.40084600000000        2.03773300000000
C           63.92251999999999        2.19946900000000        2.67000200000000
C           65.02548000000000        2.06776800000000        1.94212600000000
N           64.80581300000000        1.19501000000000        0.83282800000000
C           66.29603400000001        2.79048500000000        2.20647600000000
C           66.25748100000000        4.00000800000000        3.06425500000000
C           65.51176500000000        5.11898500000000        2.66715000000000
C           65.45473300000000        6.25499500000000        3.47965100000000
C           66.14062100000000        6.28680700000000        4.70909700000000
N           66.10187999999999        7.44127300000000        5.56824300000000
C           65.36515500000000        8.65970200000000        5.24904500000000
C           66.87819100000000        5.16020100000000        5.10558000000000
C           66.93389500000001        4.02469800000000        4.29304100000000
C           67.46479800000000        2.37373800000000        1.68251400000000
C           68.76517399999999        3.02262100000000        1.84153000000000
C           69.63747200000000        2.25446200000000        1.21785900000000
C           68.90271900000000        1.12539700000000        0.64983000000000
N           67.63583800000001        1.18442700000000        0.91434100000000
H           70.63812799999999        0.00770700000000       -0.07893300000000
H           70.63504300000000       -2.21692100000000       -1.48572500000000
H           68.83876200000000       -3.67338200000000       -2.57693900000000
H           67.01142100000000       -2.86997600000000       -4.70648600000000
H           66.93127600000000       -4.85052800000000       -6.15971300000000
H           66.34956099999999       -7.17614900000000       -6.52512200000000
H           64.35625500000000       -8.46481900000000       -4.89660600000000
H           65.99857100000000       -8.97140100000000       -4.30238200000000
H           65.51454099999999       -9.28165600000000       -6.01167700000000
H           65.08450400000000       -7.09838700000000       -2.96711700000000
H           65.17351900000000       -5.12309500000000       -1.52779600000000
H           63.40595600000000       -3.10707200000000       -3.21053500000000
H           61.56918500000000       -1.69752900000000       -2.10373800000000
H           61.86372600000000        1.31443700000000        2.36728500000000
H           63.80320199999999        2.80994900000000        3.55570300000000
H           64.97670300000000        5.11189700000000        1.72527400000000
H           64.87338000000000        7.10184200000000        3.14170500000000
H           66.62689700000000        7.41637000000000        6.47197700000000
H           65.75352599999999        9.10068400000000        4.30702000000000
H           65.49169000000001        9.40141600000000        6.06579000000000
H           64.28388699999999        8.43102500000000        5.14288700000000
H           67.40945100000000        5.16065100000000        6.04906800000000
H           67.50097400000000        3.16263100000000        4.62250100000000
H           68.99548900000001        3.94489400000000        2.35837100000000
H           70.70070000000000        2.44143900000000        1.14353700000000
C           42.34011000000000        0.01409700000000       -0.00119500000000
C           41.13116999999999        0.00064200000000       -0.00964200000000
C           39.70964100000000        0.00946100000000       -0.02162500000000
C           38.49797199999999        0.01690000000000       -0.01076200000000
C           43.75671400000000        0.00742200000000       -0.00066200000000
C           44.97741000000000        0.01690000000000       -0.01076200000000
C           57.87755500000000        0.01409700000000       -0.00119500000000
C           56.66861599999999        0.00064200000000       -0.00964200000000
C           55.24708700000000        0.00946100000000       -0.02162500000000
C           54.03541700000000        0.01690000000000       -0.01076200000000
C           59.29415899999999        0.00742200000000       -0.00066200000000
C           60.51485500000000        0.01690000000000       -0.01076200000000
Fe          49.83104899999999       -2.03298000000000       -1.58617900000000
C           46.06739700000000       -0.02908300000000        0.02153800000000
C           46.72435899999999       -0.98766300000000       -0.65687200000000
C           46.08267200000000       -2.09358400000000       -1.37152800000000
C           47.02164100000000       -2.80403500000000       -1.96395400000000
C           48.32083900000000       -2.19668100000000       -1.66060600000000
N           48.14249600000000       -1.04819300000000       -0.82862000000000
C           49.50451700000000       -2.63871800000000       -2.13216400000000
C           49.53092500000000       -3.81079000000000       -3.03184000000000
C           49.61542300000000       -5.10427400000000       -2.50083200000000
C           49.64532800000000       -6.21207500000000       -3.35229300000000
C           49.59388400000000       -6.04396800000000       -4.74564600000000
N           49.62572800000000       -7.20478100000000       -5.59669700000000
C           49.57591200000000       -7.13736400000000       -7.05344200000000
C           49.51232899999999       -4.74007300000000       -5.27350500000000
C           49.48098900000000       -3.63291600000000       -4.42069400000000
C           50.80494299999999       -2.00817300000000       -1.79557700000000
C           52.07937100000000       -2.38084300000000       -2.42226200000000
C           53.03243600000000       -1.67508800000000       -1.84859000000000
N           50.97104999999999       -1.11235400000000       -0.87300900000000
C           52.37345400000000       -0.84713100000000       -0.84652800000000
C           52.98858400000000       -0.02908300000000        0.02153800000000
C           52.23984299999999        0.77328100000000        1.01242600000000
C           52.77706299999999        1.31511500000000        2.09814300000000
C           51.74403400000000        2.10385600000000        2.74053100000000
C           50.64610200000000        1.99260000000000        2.00159800000000
N           50.86872400000000        1.14567000000000        0.87495600000000
C           49.38663799999999        2.73232000000000        2.25602700000000
C           49.44482900000000        3.95861400000000        3.08808400000000
C           48.78503500000000        4.01247700000000        4.32466000000000
C           48.85534000000000        5.16486300000000        5.11297300000000
C           49.59330199999999        6.28233900000000        4.67712300000000
N           49.68297999999999        7.48491800000000        5.46366300000000
C           49.03865200000000        7.64881900000000        6.76260400000000
C           50.25922700000000        6.21801800000000        3.44319000000000
C           50.18976399999999        5.06495200000000        2.65680200000000
C           48.21201500000000        2.32590000000000        1.73706300000000
C           46.93200800000000        3.01309500000000        1.87345400000000
C           46.04326700000000        2.25653100000000        1.26333300000000
C           46.74404600000000        1.08410900000000        0.72791000000000
N           48.01227099999999        1.12021800000000        0.99868300000000
H           45.02498100000000       -2.31390200000000       -1.42884000000000
H           46.83691100000000       -3.68178300000000       -2.56980900000000
H           49.65712099999999       -5.25368200000000       -1.42857400000000
H           49.70876200000000       -7.20483100000000       -2.92419200000000
H           49.68789000000000       -8.15146700000000       -5.15838800000000
H           48.63278500000000       -6.64913800000000       -7.37787500000000
H           50.44853200000000       -6.56679700000000       -7.43566900000000
H           49.60900800000000       -8.16267500000000       -7.47926700000000
H           49.47284400000000       -4.56978300000000       -6.34075400000000
H           49.41966600000000       -2.63652700000000       -4.84174200000000
H           52.23287899999999       -3.10691500000000       -3.20951400000000
H           54.08585600000000       -1.73061200000000       -2.08823900000000
H           53.80081599999999        1.21569500000000        2.43302500000000
H           51.86084800000000        2.70076000000000        3.63566900000000
H           48.21896000000000        3.15955600000000        4.67893600000000
H           48.33383600000000        5.17436200000000        6.06009300000000
H           50.23551899999999        8.29079800000000        5.09246100000000
H           49.42749400000000        6.89190800000000        7.47567600000000
H           49.25496900000000        8.66060300000000        7.16625700000000
H           47.93926699999999        7.53872900000000        6.65562400000000
H           50.83537600000000        7.06384700000000        3.08915300000000
H           50.71234900000000        5.03593800000000        1.70837000000000
H           46.72595499999999        3.95627800000000        2.36200400000000
H           44.99017400000000        2.48738700000000        1.17793900000000
209
 energy: -341.131627156145 gnorm: 7.883000314138 xtb: 6.5.1 (b24c23e)
Fe          33.15140943375203        1.82873291281701        1.53771825786195
C           29.45538393133543        0.07794596319673       -0.03884155882436
C           30.10537706396909        0.93200190203440        0.75909646442520
C           29.44000268604713        1.84999735562856        1.67482805778026
C           30.37087963473412        2.56383585046245        2.28269608373333
C           31.67422153322612        2.14168987110891        1.77199549084720
N           31.52010066260295        1.09906148751871        0.81208789412857
C           32.81198994772226        2.79130221648827        2.22694928909732
C           32.90122580034306        3.78747518137925        3.11553664659550
C           32.41417301062402        5.05363642370969        2.76441716244275
C           32.46235279862222        6.10518512568551        3.68277777305873
C           33.00342069749824        5.91125682872320        4.96402706646278
N           33.03970179380116        7.01402058085080        5.88715198689493
C           33.58126115463077        6.91660090536169        7.23914543066767
C           33.49878437216195        4.63852967436719        5.30899092048742
C           33.44915817365293        3.58704002730451        4.38980605075687
C           34.28348032865159        2.22203569498916        1.59507030267068
C           35.44492899787120        2.88874926838090        1.80520046462948
C           36.38878064288362        2.17836131285134        1.22159441313802
N           34.32622422256726        1.10118519393365        0.90699149509220
C           35.72181651732028        1.02436504003718        0.63274711088680
C           36.32863902738899        0.01207204427614       -0.00994801399154
C           35.57741780752579       -1.11944375555175       -0.59380927157427
C           36.11944319469972       -2.28942062465522       -0.91806378291911
C           35.08862055779068       -3.07969879926506       -1.55869619451342
C           33.98338259619825       -2.33941169299075       -1.58919278393755
N           34.20430073288902       -1.06775022926533       -0.97972473462929
C           32.71442058818945       -2.75590455192990       -2.23665524377901
C           32.75241609664840       -3.85702692697522       -3.22998840771069
C           33.49801776589718       -3.71389151514251       -4.40875104249210
C           33.55502307677416       -4.75443899033099       -5.33994781501620
C           32.86924376396443       -5.96157852556368       -5.10320294104046
N           32.90775831814479       -7.05147532121699       -6.04162857864329
C           33.64466976831410       -7.00591513959269       -7.30074045137224
C           32.13166451185195       -6.10220875493315       -3.91683486685441
C           32.07597669565848       -5.06165155257215       -2.98624489986000
C           31.54467785828745       -2.15347899570824       -1.94426128502667
C           30.24503043576552       -2.45072606890935       -2.54315596950365
C           29.37192184376751       -1.67392445043907       -1.92919854610565
C           30.10647402944546       -0.87324200935967       -0.95129788369370
N           31.37425617231746       -1.14497274503346       -0.95176961217675
H           28.37169169015945        0.08151906743841       -0.01981594836227
H           28.37480125866524        1.93977580492564        1.84421645311067
H           30.17118136171728        3.32256868331358        3.02752783589716
H           31.99839566546866        5.22547128796280        1.77881998168916
H           32.07854980906543        7.07586918557887        3.39456736750296
H           32.66042431063666        7.93947120129600        5.58450397641553
H           34.65341869917841        6.63184091225732        7.19740068575903
H           33.01135772590904        6.16254374678640        7.82133920013132
H           33.49527995908575        7.89808687437890        7.75108073970927
H           33.92532187557705        4.45068193882255        6.28488657640708
H           33.83629800020883        2.61499890779074        4.67123530712188
H           35.60375468948880        3.81734183656230        2.33665757743319
H           37.44064273482729        2.42952768748949        1.20247854080935
H           37.14608240801469       -2.59089080247637       -0.76127602044484
H           35.20664939656787       -4.07696782119330       -1.96140894982367
H           34.03311435985658       -2.79293688826823       -4.60730799924994
H           34.13644334461588       -4.60945814458849       -6.24026937785858
H           32.38315179152244       -7.92768580760103       -5.82059955566422
H           33.25638141439357       -6.18293045806258       -7.93658577753151
H           33.51813255451162       -7.96467338456545       -7.84624893026638
H           34.72579477864184       -6.85243638586571       -7.10080520482220
H           31.60037457456074       -7.02320305322820       -3.71145740295535
H           31.50885782545347       -5.19501303903992       -2.07284498144317
H           30.01443508149425       -3.15613978060707       -3.33027703679657
H           28.30911546973663       -1.64246680577041       -2.12808665276030
Fe          65.85841279491949       -1.89351668153262       -1.44419072650394
C           69.55443947777852        0.02707963870538       -0.07959129478834
C           68.90444747025160       -0.93798955433000       -0.73896079036598
C           69.56982174337166       -2.03195891928811       -1.43502142358917
C           68.63894250673761       -2.78094120995861       -1.99902568595962
C           67.33560528217174       -2.19043309608259       -1.69848442587332
N           67.48972388443308       -1.02615628966306       -0.89043253842431
C           66.19783489465691       -2.77616814268660       -2.23317246778282
C           66.10859818540030       -3.86071157949430       -3.01145482595381
C           66.59565051955887       -3.79432742444587       -4.32371917377429
C           66.54747181113251       -4.92000841789342       -5.14954529025010
C           66.00640356192372       -6.12806633608830       -4.68071946188714
N           65.97012159948696       -7.26957369120955       -5.55549030754952
C           65.42856367661989       -8.56773137416691       -5.16541246747208
C           65.51103982035613       -6.18701251412964       -3.36339239526411
C           65.56066624243844       -5.06053992583777       -2.53780432296898
C           64.72634212138276       -2.03530263722367       -1.81550054470373
C           63.56489827929265       -2.38584869406650       -2.42030017702302
C           62.62104272539798       -1.66129378188361       -1.85436748528513
N           64.68359822042454       -1.11923623408731       -0.87179760962463
C           63.28800991649535       -0.83484113763733       -0.85667117512136
C           62.68117255822016        0.01326009265929       -0.00899337546709
C           63.43240551131818        0.82994013025439        0.96785092543797
C           62.89038080940501        1.40167249093714        2.03888395515628
C           63.92120290248977        2.19930503150986        2.67033413633555
C           65.02644266264133        2.06753857338072        1.94123177488966
N           64.80552537920926        1.19527866682128        0.83319652678431
C           66.29539988253359        2.79027936877249        2.20641390480353
C           66.25740815649010        3.99993810565957        3.06425720762623
C           65.51180499177451        5.11906743855856        2.66736631335568
C           65.45480063699767        6.25487181304873        3.47965236009815
C           66.14057992421866        6.28723204486805        4.70936608299601
N           66.10206627548970        7.44085471526999        5.56823271954032
C           65.36515311870677        8.65968969978132        5.24903563344488
C           66.87816100823410        5.16013227700011        5.10547064793797
C           66.93384837688104        4.02491747371391        4.29304046366412
C           67.46514908848243        2.37347707937947        1.68230039990698
C           68.76479274914594        3.02280316957251        1.84170857896837
C           69.63790246876388        2.25414134940806        1.21758943319747
C           68.90335353782092        1.12509526850157        0.64957755563172
N           67.63556519692661        1.18484966556219        0.91466027507114
H           70.63813234959255        0.00773034859656       -0.07892912473333
H           70.63502278132582       -2.21685658624984       -1.48567774540988
H           68.83864268631893       -3.67338102160230       -2.57695332982845
H           67.01142833246949       -2.86997410648555       -4.70647237445688
H           66.93127426146526       -4.85054318133554       -6.15972836098270
H           66.34939995268176       -7.17615031544756       -6.52467804414726
H           64.35640496884632       -8.46485843645409       -4.89662258735455
H           65.99846622228208       -8.97136211928352       -4.30249077579865
H           65.51454402131459       -9.28149109925242       -6.01154476621492
H           65.08450213018934       -7.09840418419802       -2.96713052656026
H           65.17352607623658       -5.12309016117620       -1.52777765554878
H           63.40606947059237       -3.10711677655864       -3.21055286015229
H           61.56918097237036       -1.69744538365056       -2.10365581499597
H           61.86374235549489        1.31444264976819        2.36730060354022
H           63.80317573874825        2.80991758679046        3.55570100009410
H           64.97670966142614        5.11188743735869        1.72527714265944
H           64.87338083612858        7.10186511307306        3.14171633408778
H           66.62667199243137        7.41634287276800        6.47156090166761
H           65.75344267836381        9.10063877074972        4.30714030505438
H           65.49169149736140        9.40125285841811        6.06566180578445
H           64.28402973187852        8.43108282649445        5.14287966405097
H           67.40944930857943        5.16066460466690        6.04908649221189
H           67.50096715426521        3.16262673999840        4.62249180273261
H           68.99538886055696        3.94487752731645        2.35837541220880
H           70.70070855806765        2.44137345273818        1.14349298611852
C           42.34126106517536        0.01410115731371       -0.00119829741284
C           41.13016922976448        0.00065312495374       -0.00965365140223
C           39.71014009667923        0.00945171441192       -0.02160843083840
C           38.49673574362235        0.01688908304062       -0.01077788727227
C           43.75494114856248        0.00744372665380       -0.00066304425826
C           44.96862946018524        0.01723897351878       -0.01092891953333
C           57.87852415418255        0.01408471583013       -0.00119520923914
C           56.66743541045759        0.00066233985980       -0.00966204953576
C           55.24934409605321        0.00948139982620       -0.02161962882395
C           54.04684070943924        0.01754704280004       -0.01092411926306
C           59.29395231774416        0.00743606018108       -0.00066564683363
C           60.51583770331785        0.01690332510642       -0.01075403214457
Fe          49.80451041863429       -1.88924064311458       -1.43120682018260
C           46.07592165083265       -0.02861664598265        0.02218465187881
C           46.72567314896084       -0.98853734374365       -0.65745053963846
C           46.08241948564849       -2.09301855492137       -1.37111726589902
C           47.02215806004943       -2.80434441370063       -1.96420135522757
C           48.31170991491797       -2.19647583959792       -1.65974421369353
N           48.14169254206951       -1.04884064362826       -0.82904093629927
C           49.42657522087127       -2.78630020882470       -2.26474687279945
C           49.53005276314527       -3.81204960829741       -3.03302978169707
C           49.61541594210197       -5.10444664255146       -2.50108908346308
C           49.64534270135882       -6.21196510755695       -3.35225595721558
C           49.59389216218036       -6.04437807819964       -4.74600471810559
N           49.62573378986846       -7.20463820106873       -5.59622695267785
C           49.57591102495979       -7.13734926607713       -7.05344504661465
C           49.51235153615271       -4.74005256057341       -5.27339953632895
C           49.48099899223665       -3.63324343502111       -4.42081775452701
C           50.91550555581191       -2.00639070491742       -1.82004851336880
C           52.08023195350814       -2.38094708250422       -2.42255867316532
C           53.03276929819857       -1.67470575172909       -1.84824273680235
N           50.97389839691875       -1.10904202488530       -0.87041949208295
C           52.37240460317878       -0.84800321395218       -0.84732460792869
C           52.97694601811511       -0.02896437378382        0.02252045728454
C           52.23870115475540        0.77313328476099        1.01175247858605
C           52.77717442782014        1.31580113413969        2.09915124638511
C           51.74524695037084        2.10372319951144        2.74086869757398
C           50.64515721753816        1.99244790847255        2.00072667417160
N           50.86908997141272        1.14587111327504        0.87540112882501
C           49.38723110342523        2.73209748352507        2.25594209491799
C           49.44488907894667        3.95855295838370        3.08810456786457