      -----------------------------------------------------------      
     |                   =====================                   |     
     |                           x T B                           |     
     |                   =====================                   |     
     |                         S. Grimme                         |     
     |          Mulliken Center for Theoretical Chemistry        |     
     |                    University of Bonn                     |     
      -----------------------------------------------------------      

   * xtb version 6.5.1 (b24c23e) compiled by 'conda@728c89f4b128' on 2022-07-12

   xtb is free software: you can redistribute it and/or modify it under
   the terms of the GNU Lesser General Public License as published by
   the Free Software Foundation, either version 3 of the License, or
   (at your option) any later version.
   
   xtb is distributed in the hope that it will be useful,
   but WITHOUT ANY WARRANTY; without even the implied warranty of
   MERCHANTABILITY or FITNESS FOR A PARTICULAR PURPOSE.  See the
   GNU Lesser General Public License for more details.
   
   Cite this work as:
   * C. Bannwarth, E. Caldeweyher, S. Ehlert, A. Hansen, P. Pracht,
     J. Seibert, S. Spicher, S. Grimme, WIREs Comput. Mol. Sci., 2020, 11,
     e01493. DOI: 10.1002/wcms.1493
   
   for GFN2-xTB:
   * C. Bannwarth, S. Ehlert and S. Grimme., J. Chem. Theory Comput., 2019,
     15, 1652-1671. DOI: 10.1021/acs.jctc.8b01176
   for GFN1-xTB:
   * S. Grimme, C. Bannwarth, P. Shushkov, J. Chem. Theory Comput., 2017,
     13, 1989-2009. DOI: 10.1021/acs.jctc.7b00118
   for GFN0-xTB:
   * P. Pracht, E. Caldeweyher, S. Ehlert, S. Grimme, ChemRxiv, 2019, preprint.
     DOI: 10.26434/chemrxiv.8326202.v1
   for GFN-FF:
   * S. Spicher and S. Grimme, Angew. Chem. Int. Ed., 2020, 59, 15665-15673.
     DOI: 10.1002/anie.202004239
   
   for ALPB and GBSA implicit solvation:
   * S. Ehlert, M. Stahn, S. Spicher, S. Grimme, J. Chem. Theory Comput.,
     2021, 17, 4250-4261. DOI: 10.1021/acs.jctc.1c00471
   
   for DFT-D4:
   * E. Caldeweyher, C. Bannwarth and S. Grimme, J. Chem. Phys., 2017,
     147, 034112. DOI: 10.1063/1.4993215
   * E. Caldeweyher, S. Ehlert, A. Hansen, H. Neugebauer, S. Spicher,
     C. Bannwarth and S. Grimme, J. Chem. Phys., 2019, 150, 154122.
     DOI: 10.1063/1.5090222
   * E. Caldeweyher, J.-M. Mewes, S. Ehlert and S. Grimme, Phys. Chem. Chem. Phys.
     2020, 22, 8499-8512. DOI: 10.1039/D0CP00502A
   
   for sTDA-xTB:
   * S. Grimme and C. Bannwarth, J. Chem. Phys., 2016, 145, 054103.
     DOI: 10.1063/1.4959605
   
   in the mass-spec context:
   * V. Asgeirsson, C. Bauer and S. Grimme, Chem. Sci., 2017, 8, 4879.
     DOI: 10.1039/c7sc00601b
   * J. Koopman and S. Grimme, ACS Omega 2019, 4, 12, 15120-15133.
     DOI: 10.1021/acsomega.9b02011
   
   for metadynamics refer to:
   * S. Grimme, J. Chem. Theory Comput., 2019, 155, 2847-2862
     DOI: 10.1021/acs.jctc.9b00143
   
   for SPH calculations refer to:
   * S. Spicher and S. Grimme, J. Chem. Theory Comput., 2021, 17, 1701-1714
     DOI: 10.1021/acs.jctc.0c01306
   
   with help from (in alphabetical order)
   P. Atkinson, C. Bannwarth, F. Bohle, G. Brandenburg, E. Caldeweyher
   M. Checinski, S. Dohm, S. Ehlert, S. Ehrlich, I. Gerasimov, C. Hölzer
   A. Katbashev, J. Koopman, C. Lavigne, S. Lehtola, F. März, M. Müller,
   F. Musil, H. Neugebauer, J. Pisarek, C. Plett, P. Pracht, F. Pultar,
   J. Seibert, P. Shushkov, S. Spicher, M. Stahn, M. Steiner, T. Strunk,
   J. Stückrath, T. Rose, and J. Unsleber
   
 * started run on 2022/07/30 at 06:06:50.129     

           -------------------------------------------------
          |                Calculation Setup                |
           -------------------------------------------------

          program call               : xtb Ni_p-CP_C2_2.xyz --gfn 1 --opt -T 48
          hostname                   : cx3-14-28.cx3.hpc.ic.ac.uk
          coordinate file            : Ni_p-CP_C2_2.xyz
          omp threads                :                     1

   ID    Z sym.   atoms
    1   28 Ni     1, 63
    2    6 C      2-6, 8-11, 13-24, 27-32, 35-39, 42, 43, 64-68, 70-73,
                  75-86, 89-94, 97-101, 104, 105, 125, 126
    3    7 N      7, 12, 33, 34, 69, 74, 95, 96
    4    8 O      25, 26, 40, 41, 87, 88, 102, 103
    5    1 H      44-62, 106-124
########################################################################
[WARNING] Please study the warnings concerning your input carefully
-1- prog_main_parseArguments: Unknown option '-T' provided
########################################################################

           -------------------------------------------------
          |                 G F N 1 - x T B                 |
           -------------------------------------------------

        Reference                      10.1021/acs.jctc.7b00118
      * Hamiltonian:
        H0-scaling (s, p, d)           1.850000    2.250000    2.000000
        zeta-weighting                 0.000000
      * Dispersion:
        s8                             2.400000
        a1                             0.630000
        a2                             5.000000
        s9                             0.000000
      * Repulsion:
        kExp                           1.500000
        rExp                           1.000000
      * Coulomb:
        alpha                          2.000000
        third order                    atomic
        anisotropic                    false
      * Halogen bond correction:
        rad-scale                      1.300000
        damping                        0.440000


          ...................................................
          :                      SETUP                      :
          :.................................................:
          :  # basis functions                 440          :
          :  # atomic orbitals                 438          :
          :  # shells                          254          :
          :  # electrons                       426          :
          :  # halogen bonds                     0          :
          :  max. iterations                   250          :
          :  Hamiltonian                  GFN1-xTB          :
          :  restarted?                      false          :
          :  GBSA solvation                  false          :
          :  PC potential                    false          :
          :  electronic temp.          300.0000000     K    :
          :  accuracy                    1.0000000          :
          :  -> integral cutoff          0.2500000E+02      :
          :  -> integral neglect         0.1000000E-07      :
          :  -> SCF convergence          0.1000000E-05 Eh   :
          :  -> wf. convergence          0.2000000E-04 e    :
          :  Broyden damping             0.4000000          :
          ...................................................

 iter      E             dE          RMSdq      gap      omega  full diag
   1   -242.0639767 -0.242064E+03  0.106E+01    0.16       0.0  T
   2   -224.3952634  0.176687E+02  0.916E+00    0.00       1.0  T
   3   -235.0187447 -0.106235E+02  0.715E+00    0.15       1.0  T
   4   -226.8662201  0.815252E+01  0.558E+00    0.13       1.0  T
   5   -227.6358175 -0.769597E+00  0.527E+00    0.13       1.0  T
   6   -242.3850969 -0.147493E+02  0.286E+00    0.15       1.0  T
   7   -242.5907060 -0.205609E+00  0.246E+00    0.15       1.0  T
   8   -242.5839374  0.676863E-02  0.218E+00    0.17       1.0  T
   9   -242.6848153 -0.100878E+00  0.197E+00    0.16       1.0  T
  10   -242.8298228 -0.145007E+00  0.152E+00    0.24       1.0  T
  11   -242.9009807 -0.711580E-01  0.112E+00    0.33       1.0  T
  12   -242.9942915 -0.933108E-01  0.408E-01    0.62       1.0  T
  13   -243.0168485 -0.225570E-01  0.229E-01    0.58       1.0  T
  14   -243.0218924 -0.504386E-02  0.136E-01    0.56       1.0  T
  15   -243.0275321 -0.563973E-02  0.664E-02    0.56       1.0  T
  16   -243.0281414 -0.609344E-03  0.400E-02    0.56       1.0  T
  17   -243.0284609 -0.319419E-03  0.186E-02    0.56       1.0  T
  18   -243.0285117 -0.508803E-04  0.109E-02    0.56       1.0  T
  19   -243.0285338 -0.220633E-04  0.591E-03    0.56       1.5  T
  20   -243.0285421 -0.829461E-05  0.321E-03    0.56       2.8  T
  21   -243.0285442 -0.211226E-05  0.227E-03    0.56       3.9  T
  22   -243.0285452 -0.946085E-06  0.142E-03    0.56       6.3  T
  23   -243.0285456 -0.430541E-06  0.633E-04    0.56      14.1  T
  24   -243.0285457 -0.789150E-07  0.276E-04    0.56      32.3  T
  25   -243.0285457 -0.101565E-07  0.977E-05    0.56      91.2  T
  26   -243.0285457 -0.177658E-08  0.527E-05    0.56     169.0  T

   *** convergence criteria satisfied after 26 iterations ***

         #    Occupation            Energy/Eh            Energy/eV
      -------------------------------------------------------------
         1        2.0000           -0.8166247             -22.2215
       ...           ...                  ...                  ...
       207        2.0000           -0.4070649             -11.0768
       208        2.0000           -0.4069548             -11.0738
       209        2.0000           -0.4063158             -11.0564
       210        2.0000           -0.4060748             -11.0499
       211        2.0000           -0.4006804             -10.9031
       212        2.0000           -0.3973796             -10.8132
       213        2.0000           -0.3873773             -10.5411 (HOMO)
       214        0.0000           -0.3669498              -9.9852 (LUMO)
       215                         -0.3483677              -9.4796
       216                         -0.3483085              -9.4780
       217                         -0.3411601              -9.2834
       218                         -0.3403827              -9.2623
       ...                                ...                  ...
       438                          3.2446999              88.2928
      -------------------------------------------------------------
                  HL-Gap            0.0204276 Eh            0.5559 eV
             Fermi-level           -0.3771635 Eh          -10.2631 eV

 SCC (total)                   0 d,  0 h,  0 min,  2.552 sec
 SCC setup                      ...        0 min,  0.007 sec (  0.263%)
 Dispersion                     ...        0 min,  0.005 sec (  0.209%)
 classical contributions        ...        0 min,  0.002 sec (  0.082%)
 integral evaluation            ...        0 min,  0.205 sec (  8.026%)
 iterations                     ...        0 min,  1.788 sec ( 70.086%)
 molecular gradient             ...        0 min,  0.528 sec ( 20.680%)
 printout                       ...        0 min,  0.017 sec (  0.652%)

         :::::::::::::::::::::::::::::::::::::::::::::::::::::
         ::                     SUMMARY                     ::
         :::::::::::::::::::::::::::::::::::::::::::::::::::::
         :: total energy            -239.284544489184 Eh    ::
         :: gradient norm              1.719715285523 Eh/a0 ::
         :: HOMO-LUMO gap              0.555862631432 eV    ::
         ::.................................................::
         :: SCC energy              -243.028545675963 Eh    ::
         :: -> electrostatic           0.486831423616 Eh    ::
         :: repulsion energy           3.858438383747 Eh    ::
         :: dispersion energy         -0.114437196968 Eh    ::
         :: halogen bond corr.         0.000000000000 Eh    ::
         :: add. restraining           0.000000000000 Eh    ::
         :: total charge               0.000000001188 e     ::
         :::::::::::::::::::::::::::::::::::::::::::::::::::::

      ----------------------------------------------------------- 
     |                   =====================                   |
     |                        A N C O P T                        |
     |                   =====================                   |
     |               Approximate Normal Coordinate               |
     |                Rational Function Optimizer                |
      ----------------------------------------------------------- 

          ...................................................
          :                      SETUP                      :
          :.................................................:
          :   optimization level            normal          :
          :   max. optcycles                   378          :
          :   ANC micro-cycles                  20          :
          :   degrees of freedom               372          :
          :.................................................:
          :   RF solver                   davidson          :
          :   write xtbopt.log                true          :
          :   linear?                        false          :
          :   energy convergence         0.5000000E-05 Eh   :
          :   grad. convergence          0.1000000E-02 Eh/α :
          :   maximium RF displ.         1.0000000          :
          :   Hlow (freq-cutoff)         0.1000000E-01      :
          :   Hmax (freq-cutoff)         5.0000000          :
          :   S6 in model hess.         20.0000000          :
          ...................................................

generating ANC from model Hessian ...
Using Lindh-Hessian (1995)
 Shifting diagonal of input Hessian by    1.0000617959066311E-002
 Lowest  eigenvalues of input Hessian
    0.010000    0.000000    0.000000    0.000000    0.000000    0.000000
    0.000000    0.010055    0.010077    0.010081    0.010106    0.010169
    0.010233    0.010235    0.010372    0.010405    0.010470    0.010644
 Highest eigenvalues
    2.101340    2.305941    2.693064    3.243509    3.420059    4.152084


........................................................................
.............................. CYCLE    1 ..............................
........................................................................
   1   -243.0285457 -0.243029E+03  0.288E-05    0.56       0.0  T
   2   -243.0285457  0.360018E-09  0.350E-05    0.56     254.5  T
   3   -243.0285457 -0.441844E-09  0.168E-05    0.56     530.6  T
     SCC iter.                  ...        0 min,  0.212 sec
     gradient                   ...        0 min,  0.516 sec
 * total energy  :  -239.2845445 Eh     change       -0.6037340E-09 Eh
   gradient norm :     1.7197150 Eh/α   predicted     0.0000000E+00 (-100.00%)
   displ. norm   :     0.5044566 α      lambda       -0.7492608E+00
   maximum displ.:     0.3248647 α      in ANC's #372, #284, #254, ...

........................................................................
.............................. CYCLE    2 ..............................
........................................................................
   1   -243.1215430 -0.243122E+03  0.133E-01    1.01       0.0  T
   2   -243.1241420 -0.259900E-02  0.738E-02    0.97       1.0  T
   3   -243.1252782 -0.113620E-02  0.463E-02    1.01       1.0  T
   4   -243.1257003 -0.422112E-03  0.257E-02    0.99       1.0  T
   5   -243.1257604 -0.601015E-04  0.103E-02    1.00       1.0  T
   6   -243.1257911 -0.306505E-04  0.218E-03    0.99       4.1  T
   7   -243.1257920 -0.953876E-06  0.112E-03    0.99       7.9  T
   8   -243.1257925 -0.442267E-06  0.435E-04    0.99      20.5  T
   9   -243.1257925 -0.789491E-07  0.101E-04    0.99      88.3  T
  10   -243.1257925 -0.223071E-08  0.308E-05    0.99     289.3  T
     SCC iter.                  ...        0 min,  0.682 sec
     gradient                   ...        0 min,  0.520 sec
 * total energy  :  -239.6845914 Eh     change       -0.4000469E+00 Eh
   gradient norm :     0.4168399 Eh/α   predicted    -0.4699881E+00 (  17.48%)
   displ. norm   :     0.5517107 α      lambda       -0.1812160E+00
   maximum displ.:     0.2174759 α      in ANC's #122, #87, #284, ...

........................................................................
.............................. CYCLE    3 ..............................
........................................................................
   1   -243.1505238 -0.243151E+03  0.124E-01    1.00       0.0  T
   2   -243.1526953 -0.217147E-02  0.638E-02    0.99       1.0  T
   3   -243.1533729 -0.677571E-03  0.374E-02    1.01       1.0  T
   4   -243.1534923 -0.119463E-03  0.218E-02    1.00       1.0  T
   5   -243.1535837 -0.913760E-04  0.115E-02    1.00       1.0  T
   6   -243.1536313 -0.476183E-04  0.257E-03    1.00       3.5  T
   7   -243.1536335 -0.220420E-05  0.111E-03    1.00       8.0  T
   8   -243.1536340 -0.421760E-06  0.511E-04    1.00      17.4  T
   9   -243.1536341 -0.108740E-06  0.144E-04    1.00      61.7  T
  10   -243.1536341 -0.557290E-08  0.380E-05    1.00     234.7  T
     SCC iter.                  ...        0 min,  0.687 sec
     gradient                   ...        0 min,  0.521 sec
 * total energy  :  -239.7993470 Eh     change       -0.1147555E+00 Eh
   gradient norm :     0.2564324 Eh/α   predicted    -0.1181877E+00 (   2.99%)
   displ. norm   :     0.5435056 α      lambda       -0.7187180E-01
   maximum displ.:     0.2537539 α      in ANC's #122, #87, #141, ...

........................................................................
.............................. CYCLE    4 ..............................
........................................................................
   1   -243.2346337 -0.243235E+03  0.995E-02    1.08       0.0  T
   2   -243.2358398 -0.120612E-02  0.461E-02    1.07       1.0  T
   3   -243.2363016 -0.461818E-03  0.244E-02    1.08       1.0  T
   4   -243.2364446 -0.142943E-03  0.132E-02    1.08       1.0  T
   5   -243.2364770 -0.324108E-04  0.665E-03    1.08       1.3  T
   6   -243.2364885 -0.114682E-04  0.124E-03    1.08       7.2  T
   7   -243.2364889 -0.426834E-06  0.753E-04    1.08      11.8  T
   8   -243.2364890 -0.150756E-06  0.321E-04    1.08      27.7  T
   9   -243.2364891 -0.442357E-07  0.137E-04    1.08      64.8  T
  10   -243.2364891 -0.764081E-08  0.261E-05    1.08     341.7  T
     SCC iter.                  ...        0 min,  0.674 sec
     gradient                   ...        0 min,  0.518 sec
 * total energy  :  -239.8514777 Eh     change       -0.5213075E-01 Eh
   gradient norm :     0.1218474 Eh/α   predicted    -0.4655140E-01 ( -10.70%)
   displ. norm   :     0.5793001 α      lambda       -0.3363380E-01
   maximum displ.:     0.2460073 α      in ANC's #122, #87, #98, ...

........................................................................
.............................. CYCLE    5 ..............................
........................................................................
   1   -243.2719594 -0.243272E+03  0.628E-02    1.15       0.0  T
   2   -243.2723607 -0.401315E-03  0.305E-02    1.14       1.0  T
   3   -243.2725354 -0.174686E-03  0.163E-02    1.14       1.0  T
   4   -243.2726272 -0.917452E-04  0.101E-02    1.14       1.0  T
   5   -243.2726488 -0.216674E-04  0.341E-03    1.14       2.6  T
   6   -243.2726510 -0.213407E-05  0.102E-03    1.14       8.7  T
   7   -243.2726513 -0.296216E-06  0.370E-04    1.14      24.1  T
   8   -243.2726513 -0.500774E-07  0.217E-04    1.14      41.1  T
   9   -243.2726513 -0.184609E-07  0.539E-05    1.14     165.2  T
  10   -243.2726513 -0.966736E-09  0.102E-05    1.14     872.7  T
     SCC iter.                  ...        0 min,  0.665 sec
     gradient                   ...        0 min,  0.494 sec
 * total energy  :  -239.8759256 Eh     change       -0.2444790E-01 Eh
   gradient norm :     0.0558394 Eh/α   predicted    -0.2246047E-01 (  -8.13%)
   displ. norm   :     0.6012532 α      lambda       -0.1613638E-01
   maximum displ.:     0.1876641 α      in ANC's #32, #20, #122, ...

........................................................................
.............................. CYCLE    6 ..............................
........................................................................
   1   -243.2816618 -0.243282E+03  0.321E-02    1.19       0.0  T
   2   -243.2817420 -0.802133E-04  0.158E-02    1.19       1.0  T
   3   -243.2817769 -0.349592E-04  0.954E-03    1.19       1.0  T
   4   -243.2818044 -0.275007E-04  0.591E-03    1.19       1.5  T
   5   -243.2818110 -0.657079E-05  0.175E-03    1.19       5.1  T
   6   -243.2818120 -0.952910E-06  0.524E-04    1.19      17.0  T
   7   -243.2818120 -0.552393E-07  0.248E-04    1.19      36.0  T
   8   -243.2818120 -0.231263E-07  0.114E-04    1.19      78.2  T
   9   -243.2818120 -0.635347E-08  0.186E-05    1.19     478.3  T
     SCC iter.                  ...        0 min,  0.585 sec
     gradient                   ...        0 min,  0.507 sec
 * total energy  :  -239.8881486 Eh     change       -0.1222296E-01 Eh
   gradient norm :     0.0376927 Eh/α   predicted    -0.1098498E-01 ( -10.13%)
   displ. norm   :     0.6430254 α      lambda       -0.9658903E-02
   maximum displ.:     0.2534298 α      in ANC's #20, #32, #26, ...

........................................................................
.............................. CYCLE    7 ..............................
........................................................................
   1   -243.2790754 -0.243279E+03  0.194E-02    1.22       0.0  T
   2   -243.2791029 -0.275890E-04  0.873E-03    1.22       1.0  T
   3   -243.2791098 -0.687407E-05  0.581E-03    1.22       1.5  T
   4   -243.2791131 -0.330626E-05  0.342E-03    1.22       2.6  T
   5   -243.2791150 -0.189506E-05  0.140E-03    1.22       6.3  T
   6   -243.2791162 -0.114456E-05  0.310E-04    1.22      28.7  T
   7   -243.2791162 -0.166422E-07  0.119E-04    1.22      74.7  T
   8   -243.2791162 -0.391034E-08  0.630E-05    1.22     141.3  T
     SCC iter.                  ...        0 min,  0.524 sec
     gradient                   ...        0 min,  0.513 sec
 * total energy  :  -239.8957227 Eh     change       -0.7574147E-02 Eh
   gradient norm :     0.0293489 Eh/α   predicted    -0.6826359E-02 (  -9.87%)
   displ. norm   :     0.6818782 α      lambda       -0.6751148E-02
   maximum displ.:     0.3235967 α      in ANC's #20, #32, #26, ...

........................................................................
.............................. CYCLE    8 ..............................
........................................................................
   1   -243.2740757 -0.243274E+03  0.167E-02    1.24       0.0  T
   2   -243.2741010 -0.253305E-04  0.741E-03    1.24       1.2  T
   3   -243.2741068 -0.577400E-05  0.458E-03    1.24       1.9  T
   4   -243.2741096 -0.277916E-05  0.292E-03    1.24       3.1  T
   5   -243.2741115 -0.196292E-05  0.987E-04    1.24       9.0  T
   6   -243.2741119 -0.389864E-06  0.274E-04    1.24      32.5  T
   7   -243.2741119 -0.168870E-07  0.119E-04    1.24      74.7  T
   8   -243.2741120 -0.529207E-08  0.523E-05    1.24     170.4  T
     SCC iter.                  ...        0 min,  0.533 sec
     gradient                   ...        0 min,  0.514 sec
 * total energy  :  -239.9010006 Eh     change       -0.5277845E-02 Eh
   gradient norm :     0.0207494 Eh/α   predicted    -0.4945076E-02 (  -6.31%)
   displ. norm   :     0.7003863 α      lambda       -0.5131555E-02
   maximum displ.:     0.3765141 α      in ANC's #20, #26, #32, ...

........................................................................
.............................. CYCLE    9 ..............................
........................................................................
   1   -243.2725897 -0.243273E+03  0.139E-02    1.26       0.0  T
   2   -243.2726073 -0.175410E-04  0.632E-03    1.26       1.4  T
   3   -243.2726133 -0.603428E-05  0.394E-03    1.26       2.3  T
   4   -243.2726175 -0.423023E-05  0.216E-03    1.26       4.1  T
   5   -243.2726184 -0.839277E-06  0.692E-04    1.26      12.9  T
   6   -243.2726185 -0.115709E-06  0.156E-04    1.26      57.1  T
   7   -243.2726185 -0.421932E-08  0.668E-05    1.26     133.3  T
     SCC iter.                  ...        0 min,  0.467 sec
     gradient                   ...        0 min,  0.515 sec
 * total energy  :  -239.9047771 Eh     change       -0.3776536E-02 Eh
   gradient norm :     0.0155036 Eh/α   predicted    -0.3824411E-02 (   1.27%)
   displ. norm   :     0.6680972 α      lambda       -0.3625708E-02
   maximum displ.:     0.3966175 α      in ANC's #20, #26, #32, ...

........................................................................
.............................. CYCLE   10 ..............................
........................................................................
   1   -243.2711673 -0.243271E+03  0.957E-03    1.26       0.0  T
   2   -243.2711745 -0.725025E-05  0.493E-03    1.26       1.8  T
   3   -243.2711794 -0.490378E-05  0.270E-03    1.26       3.3  T
   4   -243.2711818 -0.235937E-05  0.157E-03    1.26       5.7  T
   5   -243.2711823 -0.492353E-06  0.477E-04    1.26      18.7  T
   6   -243.2711823 -0.406232E-07  0.134E-04    1.26      66.4  T
   7   -243.2711823 -0.432891E-08  0.674E-05    1.26     132.3  T
     SCC iter.                  ...        0 min,  0.467 sec
     gradient                   ...        0 min,  0.513 sec
 * total energy  :  -239.9075236 Eh     change       -0.2746498E-02 Eh
   gradient norm :     0.0129207 Eh/α   predicted    -0.2622066E-02 (  -4.53%)
   displ. norm   :     0.6025069 α      lambda       -0.2240206E-02
   maximum displ.:     0.3812456 α      in ANC's #20, #26, #32, ...

........................................................................
.............................. CYCLE   11 ..............................
........................................................................
   1   -243.2714493 -0.243271E+03  0.547E-03    1.26       0.0  T
   2   -243.2714521 -0.275106E-05  0.272E-03    1.26       3.3  T
   3   -243.2714529 -0.782975E-06  0.156E-03    1.26       5.7  T
   4   -243.2714530 -0.117138E-06  0.949E-04    1.26       9.4  T
   5   -243.2714532 -0.213444E-06  0.406E-04    1.26      21.9  T
   6   -243.2714532 -0.597900E-07  0.837E-05    1.26     106.4  T
   7   -243.2714532 -0.110060E-08  0.335E-05    1.26     265.8  T
     SCC iter.                  ...        0 min,  0.468 sec
     gradient                   ...        0 min,  0.517 sec
 * total energy  :  -239.9093053 Eh     change       -0.1781703E-02 Eh
   gradient norm :     0.0109413 Eh/α   predicted    -0.1526728E-02 ( -14.31%)
   displ. norm   :     0.5408750 α      lambda       -0.1466488E-02
   maximum displ.:     0.3540955 α      in ANC's #20, #26, #19, ...

........................................................................
.............................. CYCLE   12 ..............................
........................................................................
   1   -243.2712239 -0.243271E+03  0.600E-03    1.26       0.0  T
   2   -243.2712283 -0.434262E-05  0.292E-03    1.26       3.0  T
   3   -243.2712294 -0.114836E-05  0.151E-03    1.26       5.9  T
   4   -243.2712295 -0.547527E-07  0.952E-04    1.26       9.4  T
   5   -243.2712296 -0.175898E-06  0.486E-04    1.26      18.3  T
   6   -243.2712297 -0.874856E-07  0.857E-05    1.26     104.0  T
   7   -243.2712297 -0.202647E-08  0.380E-05    1.26     234.2  T
     SCC iter.                  ...        0 min,  0.480 sec
     gradient                   ...        0 min,  0.522 sec
 * total energy  :  -239.9104295 Eh     change       -0.1124252E-02 Eh
   gradient norm :     0.0090564 Eh/α   predicted    -0.9477555E-03 ( -15.70%)
   displ. norm   :     0.4476420 α      lambda       -0.8000984E-03
   maximum displ.:     0.2996961 α      in ANC's #20, #15, #19, ...

........................................................................
.............................. CYCLE   13 ..............................
........................................................................
   1   -243.2702484 -0.243270E+03  0.486E-03    1.25       0.0  T
   2   -243.2702507 -0.231069E-05  0.259E-03    1.25       3.4  T
   3   -243.2702520 -0.127130E-05  0.127E-03    1.25       7.0  T
   4   -243.2702523 -0.332743E-06  0.881E-04    1.25      10.1  T
   5   -243.2702525 -0.178302E-06  0.264E-04    1.25      33.8  T
   6   -243.2702525 -0.116157E-07  0.468E-05    1.25     190.3  T
   7   -243.2702525 -0.369823E-09  0.198E-05    1.25     451.0  T
     SCC iter.                  ...        0 min,  0.480 sec
     gradient                   ...        0 min,  0.504 sec
 * total energy  :  -239.9110249 Eh     change       -0.5953490E-03 Eh
   gradient norm :     0.0078210 Eh/α   predicted    -0.4802165E-03 ( -19.34%)
   displ. norm   :     0.3524483 α      lambda       -0.4328605E-03
   maximum displ.:     0.2317817 α      in ANC's #20, #15, #6, ...

........................................................................
.............................. CYCLE   14 ..............................
........................................................................
   1   -243.2691607 -0.243269E+03  0.309E-03    1.25       0.0  T
   2   -243.2691615 -0.776210E-06  0.173E-03    1.25       5.1  T
   3   -243.2691621 -0.596332E-06  0.840E-04    1.25      10.6  T
   4   -243.2691623 -0.187432E-06  0.611E-04    1.25      14.6  T
   5   -243.2691624 -0.879159E-07  0.143E-04    1.25      62.4  T
   6   -243.2691624 -0.183172E-08  0.461E-05    1.25     193.1  T
     SCC iter.                  ...        0 min,  0.431 sec
     gradient                   ...        0 min,  0.498 sec
 * total energy  :  -239.9113428 Eh     change       -0.3178686E-03 Eh
   gradient norm :     0.0064521 Eh/α   predicted    -0.2433227E-03 ( -23.45%)
   displ. norm   :     0.3378886 α      lambda       -0.3297761E-03
   maximum displ.:     0.2043577 α      in ANC's #20, #15, #6, ...

........................................................................
.............................. CYCLE   15 ..............................
........................................................................
   1   -243.2682217 -0.243268E+03  0.245E-03    1.24       0.0  T
   2   -243.2682221 -0.347242E-06  0.160E-03    1.24       5.6  T
   3   -243.2682227 -0.626180E-06  0.672E-04    1.24      13.2  T
   4   -243.2682228 -0.124631E-06  0.561E-04    1.24      15.9  T
   5   -243.2682229 -0.839213E-07  0.162E-04    1.24      55.2  T
   6   -243.2682229 -0.225663E-08  0.764E-05    1.24     116.6  T
     SCC iter.                  ...        0 min,  0.412 sec
     gradient                   ...        0 min,  0.533 sec
 * total energy  :  -239.9115589 Eh     change       -0.2160943E-03 Eh
   gradient norm :     0.0056195 Eh/α   predicted    -0.1837208E-03 ( -14.98%)
   displ. norm   :     0.2886126 α      lambda       -0.2408610E-03
   maximum displ.:     0.1479295 α      in ANC's #20, #15, #6, ...

........................................................................
.............................. CYCLE   16 ..............................
........................................................................
   1   -243.2673558 -0.243267E+03  0.209E-03    1.24       0.0  T
   2   -243.2673563 -0.523070E-06  0.124E-03    1.24       7.2  T
   3   -243.2673566 -0.283927E-06  0.563E-04    1.24      15.8  T
   4   -243.2673567 -0.567215E-07  0.450E-04    1.24      19.8  T
   5   -243.2673567 -0.606038E-07  0.140E-04    1.24      63.7  T
   6   -243.2673567 -0.134796E-08  0.517E-05    1.24     172.4  T
     SCC iter.                  ...        0 min,  0.412 sec
     gradient                   ...        0 min,  0.460 sec
 * total energy  :  -239.9117286 Eh     change       -0.1697135E-03 Eh
   gradient norm :     0.0053860 Eh/α   predicted    -0.1304675E-03 ( -23.12%)
   displ. norm   :     0.2602496 α      lambda       -0.1947484E-03
   maximum displ.:     0.1355576 α      in ANC's #15, #6, #10, ...

........................................................................
.............................. CYCLE   17 ..............................
........................................................................
   1   -243.2671568 -0.243267E+03  0.185E-03    1.24       0.0  T
   2   -243.2671569 -0.128599E-06  0.127E-03    1.24       7.0  T
   3   -243.2671575 -0.548641E-06  0.517E-04    1.24      17.2  T
   4   -243.2671576 -0.108302E-06  0.312E-04    1.24      28.5  T
   5   -243.2671576 -0.208107E-07  0.115E-04    1.24      77.1  T
   6   -243.2671576 -0.132133E-08  0.453E-05    1.24     196.6  T
     SCC iter.                  ...        0 min,  0.431 sec
     gradient                   ...        0 min,  0.474 sec
 * total energy  :  -239.9118878 Eh     change       -0.1592234E-03 Eh
   gradient norm :     0.0055825 Eh/α   predicted    -0.1039757E-03 ( -34.70%)
   displ. norm   :     0.3460780 α      lambda       -0.2602539E-03
   maximum displ.:     0.1742207 α      in ANC's #6, #15, #10, ...

........................................................................
.............................. CYCLE   18 ..............................
........................................................................
   1   -243.2669417 -0.243267E+03  0.258E-03    1.24       0.0  T
   2   -243.2669419 -0.175937E-06  0.166E-03    1.24       5.4  T
   3   -243.2669427 -0.867378E-06  0.780E-04    1.24      11.4  T
   4   -243.2669430 -0.257044E-06  0.426E-04    1.24      20.9  T
   5   -243.2669430 -0.353456E-07  0.150E-04    1.24      59.5  T
   6   -243.2669430 -0.324215E-08  0.682E-05    1.24     130.7  T
     SCC iter.                  ...        0 min,  0.424 sec
     gradient                   ...        0 min,  0.464 sec
 * total energy  :  -239.9120820 Eh     change       -0.1941829E-03 Eh
   gradient norm :     0.0054897 Eh/α   predicted    -0.1457141E-03 ( -24.96%)
   displ. norm   :     0.3658207 α      lambda       -0.2309301E-03
   maximum displ.:     0.1946350 α      in ANC's #6, #15, #10, ...

........................................................................
.............................. CYCLE   19 ..............................
........................................................................
   1   -243.2664679 -0.243266E+03  0.225E-03    1.24       0.0  T
   2   -243.2664682 -0.303049E-06  0.129E-03    1.24       6.9  T
   3   -243.2664685 -0.350476E-06  0.702E-04    1.24      12.7  T
   4   -243.2664687 -0.189134E-06  0.394E-04    1.24      22.6  T
   5   -243.2664687 -0.329042E-07  0.139E-04    1.24      64.1  T
   6   -243.2664687 -0.333509E-08  0.555E-05    1.24     160.4  T
     SCC iter.                  ...        0 min,  0.410 sec
     gradient                   ...        0 min,  0.485 sec
 * total energy  :  -239.9122374 Eh     change       -0.1554329E-03 Eh
   gradient norm :     0.0056302 Eh/α   predicted    -0.1309236E-03 ( -15.77%)
   displ. norm   :     0.3389516 α      lambda       -0.1995593E-03
   maximum displ.:     0.1893864 α      in ANC's #6, #15, #10, ...

........................................................................
.............................. CYCLE   20 ..............................
........................................................................
   1   -243.2661120 -0.243266E+03  0.187E-03    1.24       0.0  T
   2   -243.2661125 -0.496864E-06  0.805E-04    1.24      11.1  T
   3   -243.2661125 -0.671666E-07  0.450E-04    1.24      19.8  T
   4   -243.2661126 -0.388582E-07  0.289E-04    1.24      30.9  T
   5   -243.2661126 -0.212825E-07  0.135E-04    1.24      66.2  T
   6   -243.2661126 -0.547274E-08  0.327E-05    1.24     272.2  T
     SCC iter.                  ...        0 min,  0.401 sec
     gradient                   ...        0 min,  0.509 sec
 * total energy  :  -239.9123936 Eh     change       -0.1561865E-03 Eh
   gradient norm :     0.0054367 Eh/α   predicted    -0.1112487E-03 ( -28.77%)
   displ. norm   :     0.3884165 α      lambda       -0.2372796E-03
   maximum displ.:     0.2234437 α      in ANC's #6, #15, #10, ...
 * RMSD in coord.:     0.5802190 α      energy gain  -0.6278491E+00 Eh

generating ANC from model Hessian ...
Using Lindh-Hessian (1995)
 Shifting diagonal of input Hessian by    1.0023223815970844E-002
 Lowest  eigenvalues of input Hessian
    0.010000    0.010018    0.010019    0.000000    0.000000    0.000000
    0.000000    0.000000    0.000000    0.010101    0.010121    0.010202
    0.010257    0.010277    0.010389    0.010464    0.010487    0.010594
 Highest eigenvalues
    2.144678    2.396702    2.396706    2.399272    2.399275    2.645485


........................................................................
.............................. CYCLE   21 ..............................
........................................................................
   1   -243.2666397 -0.243267E+03  0.226E-03    1.24       0.0  T
   2   -243.2666403 -0.621886E-06  0.100E-03    1.24       8.9  T
   3   -243.2666404 -0.126714E-06  0.549E-04    1.24      16.2  T
   4   -243.2666405 -0.370836E-07  0.358E-04    1.24      24.9  T
   5   -243.2666405 -0.302556E-07  0.130E-04    1.24      68.7  T
   6   -243.2666405 -0.389755E-08  0.296E-05    1.24     301.1  T
     SCC iter.                  ...        0 min,  0.398 sec
     gradient                   ...        0 min,  0.520 sec
 * total energy  :  -239.9125853 Eh     change       -0.1917399E-03 Eh
   gradient norm :     0.0051073 Eh/α   predicted     0.0000000E+00 (-100.00%)
   displ. norm   :     0.0588228 α      lambda       -0.6428025E-04
   maximum displ.:     0.0292411 α      in ANC's #28, #6, #18, ...

........................................................................
.............................. CYCLE   22 ..............................
........................................................................
   1   -243.2679248 -0.243268E+03  0.124E-03    1.24       0.0  T
   2   -243.2679250 -0.223541E-06  0.617E-04    1.24      14.4  T
   3   -243.2679250 -0.287927E-07  0.332E-04    1.24      26.9  T
   4   -243.2679250  0.791829E-10  0.272E-04    1.24      32.7  T
   5   -243.2679250 -0.177790E-07  0.843E-05    1.24     105.7  T
   6   -243.2679250 -0.264484E-08  0.259E-05    1.24     344.1  T
     SCC iter.                  ...        0 min,  0.413 sec
     gradient                   ...        0 min,  0.524 sec
 * total energy  :  -239.9126505 Eh     change       -0.6513135E-04 Eh
   gradient norm :     0.0028539 Eh/α   predicted    -0.4028213E-04 ( -38.15%)
   displ. norm   :     0.1791056 α      lambda       -0.1584871E-03
   maximum displ.:     0.0865820 α      in ANC's #6, #28, #18, ...

........................................................................
.............................. CYCLE   23 ..............................
........................................................................
   1   -243.2693517 -0.243269E+03  0.258E-03    1.24       0.0  T
   2   -243.2693526 -0.864973E-06  0.129E-03    1.24       6.9  T
   3   -243.2693528 -0.204136E-06  0.611E-04    1.24      14.6  T
   4   -243.2693528 -0.406685E-07  0.515E-04    1.24      17.3  T
   5   -243.2693529 -0.642153E-07  0.161E-04    1.24      55.4  T
   6   -243.2693529 -0.616475E-08  0.513E-05    1.24     173.7  T
     SCC iter.                  ...        0 min,  0.412 sec
     gradient                   ...        0 min,  0.530 sec
 * total energy  :  -239.9127441 Eh     change       -0.9359397E-04 Eh
   gradient norm :     0.0033968 Eh/α   predicted    -0.8179965E-04 ( -12.60%)
   displ. norm   :     0.1026056 α      lambda       -0.4620159E-04
   maximum displ.:     0.0574555 α      in ANC's #6, #18, #15, ...

........................................................................
.............................. CYCLE   24 ..............................
........................................................................
   1   -243.2687333 -0.243269E+03  0.880E-04    1.24       0.0  T
   2   -243.2687334 -0.843923E-07  0.436E-04    1.24      20.4  T
   3   -243.2687334 -0.177703E-07  0.227E-04    1.24      39.2  T
   4   -243.2687334  0.189371E-08  0.183E-04    1.24      48.8  T
   5   -243.2687334 -0.102561E-07  0.476E-05    1.24     187.2  T
     SCC iter.                  ...        0 min,  0.346 sec
     gradient                   ...        0 min,  0.533 sec
 * total energy  :  -239.9127803 Eh     change       -0.3621033E-04 Eh
   gradient norm :     0.0030208 Eh/α   predicted    -0.2335789E-04 ( -35.49%)
   displ. norm   :     0.1615129 α      lambda       -0.6620204E-04
   maximum displ.:     0.0926307 α      in ANC's #6, #15, #18, ...

........................................................................
.............................. CYCLE   25 ..............................
........................................................................
   1   -243.2679366 -0.243268E+03  0.111E-03    1.24       0.0  T
   2   -243.2679367 -0.990824E-07  0.565E-04    1.24      15.8  T
   3   -243.2679367 -0.138649E-07  0.328E-04    1.24      27.1  T
   4   -243.2679367  0.135215E-07  0.268E-04    1.24      33.3  T
   5   -243.2679367 -0.334331E-07  0.527E-05    1.24     169.0  T
   6   -243.2679367 -0.702329E-09  0.144E-05    1.24     618.0  T
     SCC iter.                  ...        0 min,  0.416 sec
     gradient                   ...        0 min,  0.527 sec
 * total energy  :  -239.9128319 Eh     change       -0.5163833E-04 Eh
   gradient norm :     0.0022203 Eh/α   predicted    -0.3398239E-04 ( -34.19%)
   displ. norm   :     0.1795771 α      lambda       -0.6149559E-04
   maximum displ.:     0.1072157 α      in ANC's #6, #15, #18, ...

........................................................................
.............................. CYCLE   26 ..............................
........................................................................
   1   -243.2674954 -0.243267E+03  0.923E-04    1.24       0.0  T
   2   -243.2674955 -0.585123E-07  0.537E-04    1.24      16.6  T
   3   -243.2674955 -0.216834E-07  0.327E-04    1.24      27.3  T
   4   -243.2674955 -0.147616E-07  0.217E-04    1.24      41.0  T
   5   -243.2674955 -0.158805E-07  0.570E-05    1.24     156.2  T
   6   -243.2674955 -0.770200E-09  0.250E-05    1.24     356.3  T
     SCC iter.                  ...        0 min,  0.412 sec
     gradient                   ...        0 min,  0.503 sec
 * total energy  :  -239.9128810 Eh     change       -0.4907660E-04 Eh
   gradient norm :     0.0025509 Eh/α   predicted    -0.3174560E-04 ( -35.31%)
   displ. norm   :     0.1955236 α      lambda       -0.6142991E-04
   maximum displ.:     0.1185180 α      in ANC's #6, #15, #18, ...

........................................................................
.............................. CYCLE   27 ..............................
........................................................................
   1   -243.2674813 -0.243267E+03  0.887E-04    1.24       0.0  T
   2   -243.2674814 -0.544015E-07  0.518E-04    1.24      17.2  T
   3   -243.2674814 -0.426842E-07  0.294E-04    1.24      30.3  T
   4   -243.2674814 -0.218214E-07  0.177E-04    1.24      50.4  T
   5   -243.2674815 -0.699941E-08  0.544E-05    1.24     163.9  T
     SCC iter.                  ...        0 min,  0.341 sec
     gradient                   ...        0 min,  0.516 sec
 * total energy  :  -239.9129326 Eh     change       -0.5160953E-04 Eh
   gradient norm :     0.0030097 Eh/α   predicted    -0.3188996E-04 ( -38.21%)
   displ. norm   :     0.2444911 α      lambda       -0.7600844E-04
   maximum displ.:     0.1481755 α      in ANC's #6, #15, #18, ...

........................................................................
.............................. CYCLE   28 ..............................
........................................................................
   1   -243.2676347 -0.243268E+03  0.116E-03    1.24       0.0  T
   2   -243.2676348 -0.981221E-07  0.626E-04    1.24      14.2  T
   3   -243.2676349 -0.715335E-07  0.344E-04    1.24      25.9  T
   4   -243.2676349 -0.325716E-07  0.200E-04    1.24      44.4  T
   5   -243.2676349 -0.877205E-08  0.595E-05    1.24     149.8  T
   6   -243.2676349 -0.463700E-09  0.255E-05    1.24     348.8  T
     SCC iter.                  ...        0 min,  0.416 sec
     gradient                   ...        0 min,  0.518 sec
 * total energy  :  -239.9129962 Eh     change       -0.6356781E-04 Eh
   gradient norm :     0.0030687 Eh/α   predicted    -0.4027947E-04 ( -36.64%)
   displ. norm   :     0.2902401 α      lambda       -0.8247636E-04
   maximum displ.:     0.1766453 α      in ANC's #6, #15, #18, ...

........................................................................
.............................. CYCLE   29 ..............................
........................................................................
   1   -243.2676716 -0.243268E+03  0.126E-03    1.24       0.0  T
   2   -243.2676718 -0.138051E-06  0.633E-04    1.24      14.1  T
   3   -243.2676718 -0.586104E-07  0.343E-04    1.24      25.9  T
   4   -243.2676719 -0.150386E-07  0.223E-04    1.24      40.0  T
   5   -243.2676719 -0.144766E-07  0.722E-05    1.24     123.4  T
   6   -243.2676719 -0.125783E-08  0.236E-05    1.24     377.4  T
     SCC iter.                  ...        0 min,  0.411 sec
     gradient                   ...        0 min,  0.520 sec
 * total energy  :  -239.9130622 Eh     change       -0.6601940E-04 Eh
   gradient norm :     0.0027330 Eh/α   predicted    -0.4471456E-04 ( -32.27%)
   displ. norm   :     0.2737282 α      lambda       -0.6497298E-04
   maximum displ.:     0.1695037 α      in ANC's #6, #15, #14, ...

........................................................................
.............................. CYCLE   30 ..............................
........................................................................
   1   -243.2675420 -0.243268E+03  0.109E-03    1.24       0.0  T
   2   -243.2675421 -0.110422E-06  0.556E-04    1.24      16.0  T
   3   -243.2675421 -0.437527E-07  0.310E-04    1.24      28.7  T
   4   -243.2675421 -0.775279E-08  0.198E-04    1.24      45.0  T
   5   -243.2675422 -0.132744E-07  0.744E-05    1.24     119.8  T
     SCC iter.                  ...        0 min,  0.344 sec
     gradient                   ...        0 min,  0.520 sec
 * total energy  :  -239.9131121 Eh     change       -0.4988264E-04 Eh
   gradient norm :     0.0022067 Eh/α   predicted    -0.3492127E-04 ( -29.99%)
   displ. norm   :     0.2063359 α      lambda       -0.4131406E-04
   maximum displ.:     0.1318324 α      in ANC's #6, #15, #14, ...

........................................................................
.............................. CYCLE   31 ..............................
........................................................................
   1   -243.2677179 -0.243268E+03  0.810E-04    1.24       0.0  T
   2   -243.2677180 -0.420368E-07  0.526E-04    1.24      16.9  T
   3   -243.2677181 -0.672358E-07  0.257E-04    1.24      34.7  T
   4   -243.2677181 -0.145359E-07  0.159E-04    1.24      56.0  T
   5   -243.2677181 -0.538432E-08  0.606E-05    1.24     147.0  T
     SCC iter.                  ...        0 min,  0.340 sec
     gradient                   ...        0 min,  0.509 sec
 * total energy  :  -239.9131433 Eh     change       -0.3126309E-04 Eh
   gradient norm :     0.0015810 Eh/α   predicted    -0.2154040E-04 ( -31.10%)
   displ. norm   :     0.2212253 α      lambda       -0.2684103E-04
   maximum displ.:     0.1466889 α      in ANC's #6, #15, #14, ...

........................................................................
.............................. CYCLE   32 ..............................
........................................................................
   1   -243.2675142 -0.243268E+03  0.113E-03    1.23       0.0  T
   2   -243.2675143 -0.462940E-07  0.830E-04    1.23      10.7  T
   3   -243.2675145 -0.235228E-06  0.333E-04    1.23      26.8  T
   4   -243.2675146 -0.339298E-07  0.216E-04    1.23      41.2  T
   5   -243.2675146 -0.781645E-08  0.771E-05    1.23     115.5  T
   6   -243.2675146 -0.903327E-09  0.360E-05    1.23     247.5  T
     SCC iter.                  ...        0 min,  0.381 sec
     gradient                   ...        0 min,  0.490 sec
 * total energy  :  -239.9131689 Eh     change       -0.2555813E-04 Eh
   gradient norm :     0.0019340 Eh/α   predicted    -0.1371501E-04 ( -46.34%)
   displ. norm   :     0.1077894 α      lambda       -0.1528201E-04
   maximum displ.:     0.0752491 α      in ANC's #6, #14, #15, ...

........................................................................
.............................. CYCLE   33 ..............................
........................................................................
   1   -243.2677924 -0.243268E+03  0.125E-03    1.23       0.0  T
   2   -243.2677926 -0.210748E-06  0.655E-04    1.23      13.6  T
   3   -243.2677927 -0.785782E-07  0.359E-04    1.23      24.8  T
   4   -243.2677928 -0.490889E-07  0.216E-04    1.23      41.2  T
   5   -243.2677928 -0.792235E-08  0.590E-05    1.23     150.9  T
   6   -243.2677928 -0.567695E-09  0.231E-05    1.23     386.4  T
     SCC iter.                  ...        0 min,  0.401 sec
     gradient                   ...        0 min,  0.504 sec
 * total energy  :  -239.9131825 Eh     change       -0.1359856E-04 Eh
   gradient norm :     0.0015845 Eh/α   predicted    -0.7681813E-05 ( -43.51%)
   displ. norm   :     0.0800060 α      lambda       -0.1250444E-04
   maximum displ.:     0.0560481 α      in ANC's #6, #14, #28, ...

........................................................................
.............................. CYCLE   34 ..............................
........................................................................
   1   -243.2673981 -0.243267E+03  0.783E-04    1.23       0.0  T
   2   -243.2673982 -0.789169E-07  0.452E-04    1.23      19.7  T
   3   -243.2673983 -0.391552E-07  0.199E-04    1.23      44.7  T
   4   -243.2673983 -0.755892E-08  0.163E-04    1.23      54.6  T
     SCC iter.                  ...        0 min,  0.266 sec
     gradient                   ...        0 min,  0.509 sec
 * total energy  :  -239.9131957 Eh     change       -0.1319668E-04 Eh
   gradient norm :     0.0009147 Eh/α   predicted    -0.6274696E-05 ( -52.45%)
   displ. norm   :     0.0642701 α      lambda       -0.7968017E-05
   maximum displ.:     0.0421171 α      in ANC's #6, #18, #14, ...

........................................................................
.............................. CYCLE   35 ..............................
........................................................................
   1   -243.2678585 -0.243268E+03  0.575E-04    1.23       0.0  T
   2   -243.2678586 -0.331271E-07  0.331E-04    1.23      26.9  T
   3   -243.2678586 -0.107843E-07  0.172E-04    1.23      51.7  T
   4   -243.2678586  0.255122E-08  0.147E-04    1.23      60.8  T
     SCC iter.                  ...        0 min,  0.269 sec
     gradient                   ...        0 min,  0.509 sec
 * total energy  :  -239.9132049 Eh     change       -0.9202314E-05 Eh
   gradient norm :     0.0008506 Eh/α   predicted    -0.3992786E-05 ( -56.61%)
   displ. norm   :     0.0827234 α      lambda       -0.9347697E-05
   maximum displ.:     0.0509195 α      in ANC's #6, #18, #14, ...

........................................................................
.............................. CYCLE   36 ..............................
........................................................................
   1   -243.2675829 -0.243268E+03  0.617E-04    1.23       0.0  T
   2   -243.2675829 -0.328322E-07  0.332E-04    1.23      26.8  T
   3   -243.2675829 -0.107454E-07  0.205E-04    1.23      43.5  T
   4   -243.2675829 -0.114789E-07  0.129E-04    1.23      68.8  T
   5   -243.2675829 -0.326833E-08  0.367E-05    1.23     242.8  T
     SCC iter.                  ...        0 min,  0.335 sec
     gradient                   ...        0 min,  0.509 sec
 * total energy  :  -239.9132156 Eh     change       -0.1068845E-04 Eh
   gradient norm :     0.0011856 Eh/α   predicted    -0.4690001E-05 ( -56.12%)
   displ. norm   :     0.1083960 α      lambda       -0.1097291E-04
   maximum displ.:     0.0630733 α      in ANC's #6, #18, #17, ...

........................................................................
.............................. CYCLE   37 ..............................
........................................................................
   1   -243.2678355 -0.243268E+03  0.667E-04    1.23       0.0  T
   2   -243.2678356 -0.422835E-07  0.390E-04    1.23      22.8  T
   3   -243.2678356 -0.234742E-07  0.213E-04    1.23      41.8  T
   4   -243.2678356 -0.775927E-08  0.151E-04    1.23      58.9  T
   5   -243.2678356 -0.493267E-08  0.385E-05    1.23     231.5  T
     SCC iter.                  ...        0 min,  0.337 sec
     gradient                   ...        0 min,  0.513 sec
 * total energy  :  -239.9132281 Eh     change       -0.1249507E-04 Eh
   gradient norm :     0.0011878 Eh/α   predicted    -0.5517668E-05 ( -55.84%)
   displ. norm   :     0.1284937 α      lambda       -0.1043384E-04
   maximum displ.:     0.0776600 α      in ANC's #6, #18, #14, ...

........................................................................
.............................. CYCLE   38 ..............................
........................................................................
   1   -243.2679681 -0.243268E+03  0.450E-04    1.23       0.0  T
   2   -243.2679681 -0.126496E-07  0.314E-04    1.23      28.3  T
   3   -243.2679681 -0.205868E-07  0.143E-04    1.23      62.1  T
   4   -243.2679681 -0.189357E-08  0.117E-04    1.23      76.4  T
     SCC iter.                  ...        0 min,  0.270 sec
     gradient                   ...        0 min,  0.513 sec
 * total energy  :  -239.9132389 Eh     change       -0.1083719E-04 Eh
   gradient norm :     0.0009512 Eh/α   predicted    -0.5260094E-05 ( -51.46%)
   displ. norm   :     0.0935364 α      lambda       -0.6570611E-05
   maximum displ.:     0.0620870 α      in ANC's #6, #14, #18, ...

........................................................................
.............................. CYCLE   39 ..............................
........................................................................
   1   -243.2675712 -0.243268E+03  0.524E-04    1.23       0.0  T
   2   -243.2675712 -0.263345E-07  0.255E-04    1.23      34.9  T
   3   -243.2675713 -0.410699E-08  0.133E-04    1.23      67.0  T
   4   -243.2675713  0.228039E-08  0.115E-04    1.23      77.4  T
     SCC iter.                  ...        0 min,  0.269 sec
     gradient                   ...        0 min,  0.521 sec
 * total energy  :  -239.9132447 Eh     change       -0.5822073E-05 Eh
   gradient norm :     0.0006358 Eh/α   predicted    -0.3299163E-05 ( -43.33%)
   displ. norm   :     0.0533832 α      lambda       -0.3847745E-05
   maximum displ.:     0.0379675 α      in ANC's #6, #14, #5, ...

........................................................................
.............................. CYCLE   40 ..............................
........................................................................
   1   -243.2675366 -0.243268E+03  0.453E-04    1.23       0.0  T
   2   -243.2675366 -0.200351E-07  0.182E-04    1.23      49.0  T
   3   -243.2675366 -0.928395E-09  0.111E-04    1.23      80.0  T
     SCC iter.                  ...        0 min,  0.209 sec
     gradient                   ...        0 min,  0.528 sec
 * total energy  :  -239.9132489 Eh     change       -0.4177550E-05 Eh
   gradient norm :     0.0007694 Eh/α   predicted    -0.1929171E-05 ( -53.82%)
   displ. norm   :     0.0555167 α      lambda       -0.3604189E-05
   maximum displ.:     0.0378782 α      in ANC's #6, #14, #5, ...

   *** GEOMETRY OPTIMIZATION CONVERGED AFTER 40 ITERATIONS ***

------------------------------------------------------------------------
 total energy gain   :        -0.6287044 Eh     -394.5180 kcal/mol
 total RMSD          :         0.6859412 a0        0.3630 Å
 total power (kW/mol):       -41.2665805 (step)  -35.3102 (real)
------------------------------------------------------------------------

 ANCopt (total)                0 d,  0 h,  0 min, 46.747 sec
 optimizer setup                ...        0 min,  0.000 sec (  0.001%)
 model hessian                  ...        0 min,  0.142 sec (  0.303%)
 ANC generation                 ...        0 min,  0.068 sec (  0.146%)
 coordinate transformation      ...        0 min,  0.007 sec (  0.016%)
 single point calculation       ...        0 min, 46.469 sec ( 99.403%)
 optimization log               ...        0 min,  0.028 sec (  0.059%)
 hessian update                 ...        0 min,  0.007 sec (  0.014%)
 rational function              ...        0 min,  0.019 sec (  0.041%)

================
 final structure:
================
126
 xtb: 6.5.1 (b24c23e)
Ni          19.01851362378951       -0.08919035918937        0.04066209204325
C           15.63019538157245       -0.19342226733033        0.06824023465547
C           16.29388563019982       -0.37415256502668        1.26392831823557
C           15.62922994026919       -0.59187147215803        2.51283862902452
C           16.58642248421123       -0.58015381208830        3.46941561482561
C           17.83785805006476       -0.36661022083071        2.80257912106238
N           17.64974895859484       -0.26450599708702        1.44687590659353
C           19.04517017076553       -0.17410266242761        3.46083846530176
C           20.24287829934440        0.03435601118842        2.78953239488591
C           21.50336014711073        0.20539415214662        3.44622587002035
C           22.44932793733511        0.22486562363866        2.47713013669538
N           20.41610603333086       -0.02589552670527        1.42536010001365
C           21.76837356440941        0.05777864354260        1.23302244462447
C           22.42864131615192       -0.08421747709880        0.01001770616399
C           21.74581738438882       -0.20447199829100       -1.20253617583907
C           22.39972177902963       -0.37392339250484       -2.46060684939437
C           21.43799887402389       -0.30856266838057       -3.41255616011776
C           20.19650360075472       -0.10040226927941       -2.73122385762065
C           18.98245598242787        0.09734427233189       -3.37803230702477
C           18.97826916049533        0.19449537207985       -4.85562006345372
C           18.25774667089440       -0.72139703528295       -5.62680195658605
C           18.26467749717138       -0.62971189354771       -7.00645476496062
C           18.98920222084956        0.38096263801901       -7.64117047520377
C           18.96696030672678        0.43673933832093       -9.12256929825897
O           19.70859034554669        1.43119352843989       -9.63356646231930
O           18.35119265405588       -0.32609697964007       -9.82272926559500
C           19.70832046092007        1.29953082530709       -6.87579087989654
C           19.70305652294837        1.20361738753726       -5.49536427992297
C           17.77737753023073        0.19255351871055       -2.69376029135305
C           16.50821123069426        0.40799686698184       -3.32568274045262
C           15.56659023813375        0.30376117209170       -2.35896362721410
C           16.26163211178939        0.04742954700637       -1.13443650510542
N           17.61798312353739        0.01936311146096       -1.34155970468151
N           20.39231463208651       -0.08515706153104       -1.36969107685074
C           19.06338094386609       -0.20731878454329        4.94339611234115
C           18.78339951667687       -1.39447444747317        5.62421982667588
C           18.81693362313516       -1.42958088810365        7.00622808697877
C           19.12765713209705       -0.27790630978383        7.73165309557277
C           19.15841921237759       -0.36756174464467        9.21130061736865
O           19.49961540970509        0.78245541120155        9.81195320368166
O           18.90794193596390       -1.36552649933380        9.83746576272624
C           19.40111019626777        0.91160306919147        7.05565521036177
C           19.37009551300258        0.94385537984843        5.67219246955416
H           14.54700461484200       -0.22604767203029        0.07713737976960
H           14.56408550809340       -0.71790994733113        2.62407338563398
H           16.46792605503065       -0.68975583438281        4.53512118091531
H           21.63951786552661        0.28313689810839        4.51239326110867
H           23.51607377923710        0.33532476731500        2.58257223740861
H           23.45925613314824       -0.52547431852517       -2.58602610739440
H           21.54864095824278       -0.40301289291163       -4.48038535661703
H           17.70748902267934       -1.51669019913854       -5.13702303750384
H           17.71253534746183       -1.34055120168613       -7.61139535905543
H           19.64253651803392        1.39758884943298      -10.60173940832429
H           20.26948073830845        2.08745074931898       -7.36410546090867
H           20.25304215372726        1.92378493397212       -4.90006326974432
H           16.36873873906776        0.61188874188033       -4.37483338853924
H           14.49554007981174        0.39309377959616       -2.44641730704319
H           18.55605607003857       -2.29264800155810        5.06137479834775
H           18.60761792061728       -2.34880111581709        7.54234283386820
H           19.49813435879596        0.63987848987637       10.77238184879082
H           19.63797381553069        1.80880724821927        7.61533779306478
H           19.57394446389976        1.86988848510548        5.14634640774769
Ni          29.87392750009204       -0.08398658647412       -0.05068553690539
C           33.26224465490647       -0.18431196071031       -0.09009948515095
C           32.59855027793233       -0.22590963904339       -1.29865111760830
C           33.26320279163787       -0.29813304394626       -2.56434017345666
C           32.30600815335386       -0.17616169315814       -3.51317894320073
C           31.05457354231166       -0.04095454071175       -2.82616077275669
N           31.24268647291211       -0.09590000452904       -1.46772701086972
C           29.84725845909944        0.22615063934568       -3.45782952899145
C           28.64954219622951        0.35577712211205       -2.76697074743061
C           27.38905341830742        0.60134964479305       -3.39956767496716
C           26.44308962120595        0.50894427357740       -2.43468763470405
N           28.47632050340130        0.13864100150756       -1.41884501378116
C           27.12405390916626        0.19956050724767       -1.21813747623069
C           26.46379305727677       -0.08248558280559       -0.01965609820607
C           27.14661396633215       -0.34172468926392        1.17095313262776
C           26.49270248183308       -0.65507376848510        2.40109946545926
C           27.45442314713748       -0.69991837327738        3.35423734600007
C           28.69592449034477       -0.41462166696119        2.70144712829855
C           29.90998449899216       -0.29281288556735        3.36672797717816
C           29.91417665924160       -0.36668999211976        4.84566215031474
C           30.63467642370650       -1.36541298449879        5.50609074122764
C           30.62774765151400       -1.43342170694095        6.88711323347669
C           29.90324539482358       -0.50265860850801        7.63413460712622
C           29.92551919518275       -0.61804241039760        9.11208596520885
O           29.18386686687297        0.31084057241354        9.73433862688174
O           30.54128692919939       -1.45652380477050        9.71961677187869
C           29.18413964178200        0.49804580925045        6.97977760305346
C           29.18940521109232        0.56194589924814        5.59749964331656
C           31.11506520754365       -0.11938532483365        2.69798997306920
C           32.38424145226508        0.02168013654982        3.35054090451167
C           33.32586181547510        0.02958769242883        2.37825123916591
C           32.63081277175419       -0.08376994853215        1.13233194380677
N           31.27446132210872       -0.13549090565579        1.33483895459898
N           28.50011782854861       -0.24251097713780        1.35074952035227
C           29.82904608445448        0.36411544329283       -4.93432926632346
C           30.10903263782049       -0.73661024188762       -5.74751076465573
C           30.07551379828125       -0.61211038993811       -7.12434923441226
C           29.76474418689958        0.61553013515596       -7.71212114212306
C           29.73389156629402        0.69708703886464       -9.19223033363982
O           29.39279378169442        1.90872619344769       -9.65625229693955
O           29.98458073214136       -0.22199370260647       -9.92934329137256
C           29.49128998865510        1.71915065443558       -6.90346144734335
C           29.52232558649493        1.59165336826439       -5.52551088748096
H           34.34543456450593       -0.21571995832802       -0.10270086892955
H           34.32834634983191       -0.41050626681701       -2.68937167726538
H           32.42449985728028       -0.16212052902385       -4.58441443707160
H           27.25289500663236        0.80148279370762       -4.44966470348119
H           25.37634033784779        0.63079557895083       -2.52669213167361
H           25.43316428382221       -0.82005083845232        2.50820655582829
H           27.34377585513980       -0.91684683262146        4.40405676071516
H           31.18491831944009       -2.09893797215020        4.92787563011616
H           31.17988327869122       -2.20927813358039        7.40605348836478
H           29.24993105083190        0.16583193113612       10.69217876591558
H           28.62299129103229        1.22441309008048        7.55568874449199
H           28.63943244598830        1.34596181063556        5.08921048226723
H           32.52371977743120        0.10320605289159        4.41620536254980
H           34.39691579846315        0.10818540800675        2.47542340487772
H           30.33636551177273       -1.69369917833305       -5.29199506640079
H           30.28480174457199       -1.46337962622137       -7.76288648314138
H           29.39439692201747        1.87788364732918      -10.62673827079286
H           29.25443901584242        2.67491297440202       -7.35594814642377
H           29.31848205263743        2.45087027389383       -4.89638376719898
C           23.83824654739260       -0.09235698594515       -0.00085070130398
C           25.05418762352932       -0.09185023494501       -0.00980309959858

 Bond Distances (Angstroems)
 ---------------------------
Ni1-N7=1.9702        Ni1-N12=1.9684       Ni1-N33=1.9707       Ni1-N34=1.9689       C2-C3=1.3794         C2-C32=1.3795        
C2-H44=1.0837        C3-C2=1.3794         C3-C4=1.4314         C3-N7=1.3725         C4-C3=1.4314         C4-C5=1.3533         
C4-H45=1.0783        C5-C4=1.3533         C5-C6=1.4340         C5-H46=1.0779        C6-C5=1.4340         C6-N7=1.3725         
C6-C8=1.3885         N7-Ni1=1.9702        N7-C3=1.3725         N7-C6=1.3725         C8-C6=1.3885         C8-C9=1.3887         
C8-C35=1.4830        C9-C8=1.3887         C9-C10=1.4315        C9-N12=1.3764        C10-C9=1.4315        C10-C11=1.3544       
C10-H47=1.0776       C11-C10=1.3544       C11-C13=1.4281       C11-H48=1.0776       N12-Ni1=1.9684       N12-C9=1.3764        
N12-C13=1.3684       C13-C11=1.4281       C13-N12=1.3684       C13-C14=1.3971       C14-C13=1.3971       C14-C15=1.3968       
C14-C125=1.4097      C15-C14=1.3968       C15-C16=1.4280       C15-N34=1.3690       C16-C15=1.4280       C16-C17=1.3548       
C16-H49=1.0776       C17-C16=1.3548       C17-C18=1.4314       C17-H50=1.0777       C18-C17=1.4314       C18-C19=1.3897       
C18-N34=1.3756       C19-C18=1.3897       C19-C20=1.4808       C19-C29=1.3891       C20-C19=1.4808       C20-C21=1.3974       
C20-C28=1.3975       C21-C20=1.3974       C21-C22=1.3827       C21-H51=1.0840       C22-C21=1.3827       C22-C23=1.3962       
C22-H52=1.0845       C23-C22=1.3962       C23-C24=1.4826       C23-C27=1.3952       C24-C23=1.4826       C24-O25=1.3417       
C24-O26=1.2047       O25-C24=1.3417       O25-H53=0.9710       O26-C24=1.2047       C27-C23=1.3952       C27-C28=1.3838       
C27-H54=1.0836       C28-C20=1.3975       C28-C27=1.3838       C28-H55=1.0842       C29-C19=1.3891       C29-C30=1.4341       
C29-N33=1.3725       C30-C29=1.4341       C30-C31=1.3535       C30-H56=1.0778       C31-C30=1.3535       C31-C32=1.4312       
C31-H57=1.0783       C32-C2=1.3795        C32-C31=1.4312       C32-N33=1.3724       N33-Ni1=1.9707       N33-C29=1.3725       
N33-C32=1.3724       N34-Ni1=1.9689       N34-C15=1.3690       N34-C18=1.3756       C35-C8=1.4830        C35-C36=1.3969       
C35-C43=1.3966       C36-C35=1.3969       C36-C37=1.3829       C36-H58=1.0841       C37-C36=1.3829       C37-C38=1.3961       
C37-H59=1.0845       C38-C37=1.3961       C38-C39=1.4827       C38-C42=1.3952       C39-C38=1.4827       C39-O40=1.3415       
C39-O41=1.2045       O40-C39=1.3415       O40-H60=0.9710       O41-C39=1.2045       C42-C38=1.3952       C42-C43=1.3842       
C42-H61=1.0837       C43-C35=1.3966       C43-C42=1.3842       C43-H62=1.0843       H44-C2=1.0837        H45-C4=1.0783        
H46-C5=1.0779        H47-C10=1.0776       H48-C11=1.0776       H49-C16=1.0776       H50-C17=1.0777       H51-C21=1.0840       
H52-C22=1.0845       H53-O25=0.9710       H54-C27=1.0836       H55-C28=1.0842       H56-C30=1.0778       H57-C31=1.0783       
H58-C36=1.0841       H59-C37=1.0845       H60-O40=0.9710       H61-C42=1.0837       H62-C43=1.0843       Ni63-N69=1.9702      
Ni63-N74=1.9684      Ni63-N95=1.9707      Ni63-N96=1.9689      C64-C65=1.3794       C64-C94=1.3795       C64-H106=1.0837      
C65-C64=1.3794       C65-C66=1.4314       C65-N69=1.3725       C66-C65=1.4314       C66-C67=1.3533       C66-H107=1.0783      
C67-C66=1.3533       C67-C68=1.4340       C67-H108=1.0779      C68-C67=1.4340       C68-N69=1.3725       C68-C70=1.3885       
N69-Ni63=1.9702      N69-C65=1.3725       N69-C68=1.3725       C70-C68=1.3885       C70-C71=1.3887       C70-C97=1.4830       
C71-C70=1.3887       C71-C72=1.4315       C71-N74=1.3764       C72-C71=1.4315       C72-C73=1.3544       C72-H109=1.0776      
C73-C72=1.3544       C73-C75=1.4281       C73-H110=1.0776      N74-Ni63=1.9684      N74-C71=1.3764       N74-C75=1.3684       
C75-C73=1.4281       C75-N74=1.3684       C75-C76=1.3971       C76-C75=1.3971       C76-C77=1.3968       C76-C126=1.4097      
C77-C76=1.3968       C77-C78=1.4280       C77-N96=1.3690       C78-C77=1.4280       C78-C79=1.3548       C78-H111=1.0776      
C79-C78=1.3548       C79-C80=1.4314       C79-H112=1.0777      C80-C79=1.4314       C80-C81=1.3897       C80-N96=1.3756       
C81-C80=1.3897       C81-C82=1.4808       C81-C91=1.3891       C82-C81=1.4808       C82-C83=1.3974       C82-C90=1.3975       
C83-C82=1.3974       C83-C84=1.3827       C83-H113=1.0840      C84-C83=1.3827       C84-C85=1.3962       C84-H114=1.0845      
C85-C84=1.3962       C85-C86=1.4826       C85-C89=1.3952       C86-C85=1.4826       C86-O87=1.3417       C86-O88=1.2047       
O87-C86=1.3417       O87-H115=0.9710      O88-C86=1.2047       C89-C85=1.3952       C89-C90=1.3838       C89-H116=1.0836      
C90-C82=1.3975       C90-C89=1.3838       C90-H117=1.0842      C91-C81=1.3891       C91-C92=1.4341       C91-N95=1.3725       
C92-C91=1.4341       C92-C93=1.3535       C92-H118=1.0778      C93-C92=1.3535       C93-C94=1.4312       C93-H119=1.0783      
C94-C64=1.3795       C94-C93=1.4312       C94-N95=1.3724       N95-Ni63=1.9707      N95-C91=1.3725       N95-C94=1.3724       
N96-Ni63=1.9689      N96-C77=1.3690       N96-C80=1.3756       C97-C70=1.4830       C97-C98=1.3969       C97-C105=1.3966      
C98-C97=1.3969       C98-C99=1.3829       C98-H120=1.0841      C99-C98=1.3829       C99-C100=1.3961      C99-H121=1.0845      
C100-C99=1.3961      C100-C101=1.4827     C100-C104=1.3952     C101-C100=1.4827     C101-O102=1.3415     C101-O103=1.2045     
O102-C101=1.3415     O102-H122=0.9710     O103-C101=1.2045     C104-C100=1.3952     C104-C105=1.3842     C104-H123=1.0837     
C105-C97=1.3966      C105-C104=1.3842     C105-H124=1.0843     H106-C64=1.0837      H107-C66=1.0783      H108-C67=1.0779      
H109-C72=1.0776      H110-C73=1.0776      H111-C78=1.0776      H112-C79=1.0777      H113-C83=1.0840      H114-C84=1.0845      
H115-O87=0.9710      H116-C89=1.0836      H117-C90=1.0842      H118-C92=1.0778      H119-C93=1.0783      H120-C98=1.0841      
H121-C99=1.0845      H122-O102=0.9710     H123-C104=1.0837     H124-C105=1.0843     C125-C14=1.4097      C125-C126=1.2160     
C126-C76=1.4097      C126-C125=1.2160     
 C  H  Rav=1.0811 sigma=0.0031  Rmin=1.0776  Rmax=1.0845    34
 C  C  Rav=1.4034 sigma=0.0408  Rmin=1.2160  Rmax=1.4830    75
 N  C  Rav=1.3724 sigma=0.0026  Rmin=1.3684  Rmax=1.3764    16
 O  H  Rav=0.9710 sigma=0.0000  Rmin=0.9710  Rmax=0.9710     4
 O  C  Rav=1.2731 sigma=0.0685  Rmin=1.2045  Rmax=1.3417     8
 Ni N  Rav=1.9696 sigma=0.0009  Rmin=1.9684  Rmax=1.9707     8

 selected bond angles (degree)
 --------------------
N12-Ni1-N7= 89.66              N33-Ni1-N7= 90.67              N33-Ni1-N12=175.00             N34-Ni1-N7=175.01              
N34-Ni1-N12= 90.48             N34-Ni1-N33= 89.62             C32-C2-C3=123.94               H44-C2-C3=118.02               
H44-C2-C32=118.03              C4-C3-C2=123.56                N7-C3-C2=125.48                N7-C3-C4=110.77                
C5-C4-C3=106.68                H45-C4-C3=124.50               H45-C4-C5=128.81               C6-C5-C4=106.85                
H46-C5-C4=128.33               H46-C5-C6=124.81               N7-C6-C5=110.54                C8-C6-C5=123.99                
C8-C6-N7=125.25                C3-N7-Ni1=126.75               C6-N7-Ni1=128.05               C6-N7-C3=105.14                
C9-C8-C6=122.79                C35-C8-C6=118.78               C35-C8-C9=118.42               C10-C9-C8=123.75               
N12-C9-C8=125.52               N12-C9-C10=110.43              C11-C10-C9=106.77              H47-C10-C9=125.01              
H47-C10-C11=128.22             

 selected dihedral angles (degree)
 ---------------------------------
C4-C3-C2-C32=178.45           C4-C3-C2-H44=359.52           N7-C3-C2-C32=  4.05           N7-C3-C2-H44=185.12           
C5-C4-C3-C2=186.43            C5-C4-C3-N7=  1.56            H45-C4-C3-C2=  5.43           H45-C4-C3-N7=180.55           
C6-C5-C4-C3=359.51            C6-C5-C4-H45=180.58           H46-C5-C4-C3=178.56           H46-C5-C4-H45=359.62          
N7-C6-C5-C4=359.28            N7-C6-C5-H46=180.19           C8-C6-C5-C4=174.04            C8-C6-C5-H46=354.95           
C3-N7-Ni1-N12=180.03          C3-N7-Ni1-N33=  5.02          C3-N7-Ni1-N34=271.67          C6-N7-Ni1-N12=356.69          
C6-N7-Ni1-N33=181.68          C6-N7-Ni1-N34= 88.33          Ni1-N7-C3-C2=350.33           Ni1-N7-C3-C4=175.32           
C6-N7-C3-C2=173.06            C6-N7-C3-C4=358.05            Ni1-N7-C6-C5=184.41           Ni1-N7-C6-C8=  9.73           
C3-N7-C6-C5=  1.64            C3-N7-C6-C8=186.96            C9-C8-C6-C5=180.18            C9-C8-C6-N7=354.16            
C35-C8-C6-C5=  0.91           C35-C8-C6-N7=174.89           C10-C9-C8-C6=181.44           C10-C9-C8-C35=  0.72          
N12-C9-C8-C6=354.59           N12-C9-C8-C35=173.87          C11-C10-C9-C8=172.97          C11-C10-C9-N12=358.92         
H47-C10-C9-C8=353.93          H47-C10-C9-N12=179.87         
           -------------------------------------------------
          |                Final Singlepoint                |
           -------------------------------------------------

          ...................................................
          :                      SETUP                      :
          :.................................................:
          :  # basis functions                 440          :
          :  # atomic orbitals                 438          :
          :  # shells                          254          :
          :  # electrons                       426          :
          :  # halogen bonds                     0          :
          :  max. iterations                   250          :
          :  Hamiltonian                  GFN1-xTB          :
          :  restarted?                      false          :
          :  GBSA solvation                  false          :
          :  PC potential                    false          :
          :  electronic temp.          300.0000000     K    :
          :  accuracy                    1.0000000          :
          :  -> integral cutoff          0.2500000E+02      :
          :  -> integral neglect         0.1000000E-07      :
          :  -> SCF convergence          0.1000000E-05 Eh   :
          :  -> wf. convergence          0.2000000E-04 e    :
          :  Broyden damping             0.4000000          :
          ...................................................

 iter      E             dE          RMSdq      gap      omega  full diag
   1   -243.2675366 -0.243268E+03  0.863E-05    1.23       0.0  T
   2   -243.2675366  0.141762E-08  0.872E-05    1.23     102.1  T
   3   -243.2675366 -0.391793E-08  0.283E-05    1.23     315.3  T

   *** convergence criteria satisfied after 3 iterations ***

         #    Occupation            Energy/Eh            Energy/eV
      -------------------------------------------------------------
         1        2.0000           -0.8339461             -22.6928
       ...           ...                  ...                  ...
       207        2.0000           -0.4068198             -11.0701
       208        2.0000           -0.4068152             -11.0700
       209        2.0000           -0.4057222             -11.0403
       210        2.0000           -0.4057217             -11.0403
       211        2.0000           -0.4056425             -11.0381
       212        2.0000           -0.4056415             -11.0381
       213        2.0000           -0.3946025             -10.7377 (HOMO)
       214                         -0.3493177              -9.5054 (LUMO)
       215                         -0.3409798              -9.2785
       216                         -0.3409689              -9.2782
       217                         -0.3371887              -9.1754
       218                         -0.3371741              -9.1750
       ...                                ...                  ...
       438                          1.3339191              36.2978
      -------------------------------------------------------------
                  HL-Gap            0.0452847 Eh            1.2323 eV
             Fermi-level           -0.3719601 Eh          -10.1215 eV

 SCC (total)                   0 d,  0 h,  0 min,  0.970 sec
 SCC setup                      ...        0 min,  0.007 sec (  0.722%)
 Dispersion                     ...        0 min,  0.005 sec (  0.563%)
 classical contributions        ...        0 min,  0.002 sec (  0.218%)
 integral evaluation            ...        0 min,  0.202 sec ( 20.827%)
 iterations                     ...        0 min,  0.213 sec ( 21.967%)
 molecular gradient             ...        0 min,  0.525 sec ( 54.075%)
 printout                       ...        0 min,  0.016 sec (  1.624%)

         :::::::::::::::::::::::::::::::::::::::::::::::::::::
         ::                     SUMMARY                     ::
         :::::::::::::::::::::::::::::::::::::::::::::::::::::
         :: total energy            -239.913248907306 Eh    ::
         :: gradient norm              0.000769835055 Eh/a0 ::
[...]
    13   6 C    3.909 --    14 C    1.269    12 N    1.236    11 C    1.191
    14   6 C    3.945 --    15 C    1.270    13 C    1.269   125 C    1.169
    15   6 C    3.909 --    14 C    1.270    34 N    1.234    16 C    1.191
    16   6 C    3.962 --    17 C    1.635    15 C    1.191    49 H    0.969
    17   6 C    3.959 --    16 C    1.635    18 C    1.184    50 H    0.973
    18   6 C    3.915 --    19 C    1.322    34 N    1.210    17 C    1.184
    19   6 C    3.939 --    29 C    1.323    18 C    1.322    20 C    1.032
    20   6 C    3.987 --    28 C    1.385    21 C    1.385    19 C    1.032
    21   6 C    3.987 --    22 C    1.464    20 C    1.385    51 H    0.972
                            27 C    0.102
    22   6 C    3.990 --    21 C    1.464    23 C    1.385    52 H    0.968
                            28 C    0.103
    23   6 C    3.982 --    27 C    1.388    22 C    1.385    24 C    1.009
    24   6 C    3.836 --    26 O    1.690    25 O    1.088    23 C    1.009
    25   8 O    2.096 --    24 C    1.088    53 H    0.838    26 O    0.129
    26   8 O    1.958 --    24 C    1.690    25 O    0.129
    27   6 C    3.991 --    28 C    1.462    23 C    1.388    54 H    0.970
                            21 C    0.102
    28   6 C    3.987 --    27 C    1.462    20 C    1.385    55 H    0.972
                            22 C    0.103
    29   6 C    3.920 --    19 C    1.323    33 N    1.221    30 C    1.176
    30   6 C    3.963 --    31 C    1.650    29 C    1.176    56 H    0.972
    31   6 C    3.960 --    30 C    1.650    32 C    1.174    57 H    0.975
    32   6 C    3.922 --     2 C    1.363    33 N    1.213    31 C    1.174
    33   7 N    3.402 --    29 C    1.221    32 C    1.213     1 Ni   0.664
    34   7 N    3.406 --    15 C    1.234    18 C    1.210     1 Ni   0.662
    35   6 C    3.986 --    43 C    1.389    36 C    1.388     8 C    1.023
    36   6 C    3.988 --    37 C    1.463    35 C    1.388    58 H    0.972
                            42 C    0.103
    37   6 C    3.990 --    36 C    1.463    38 C    1.386    59 H    0.968
                            43 C    0.103
    38   6 C    3.984 --    42 C    1.389    37 C    1.386    39 C    1.009
    39   6 C    3.836 --    41 O    1.690    40 O    1.088    38 C    1.009
    40   8 O    2.096 --    39 C    1.088    60 H    0.838    41 O    0.129
    41   8 O    1.959 --    39 C    1.690    40 O    0.129
    42   6 C    3.991 --    43 C    1.460    38 C    1.389    61 H    0.970
                            36 C    0.103
    43   6 C    3.988 --    42 C    1.460    35 C    1.389    62 H    0.972
                            37 C    0.103
    44   1 H    1.000 --     2 C    0.970
    45   1 H    0.997 --     4 C    0.975
    46   1 H    1.004 --     5 C    0.973
    47   1 H    1.004 --    10 C    0.972
    48   1 H    1.005 --    11 C    0.969
    49   1 H    1.005 --    16 C    0.969
    50   1 H    1.004 --    17 C    0.973
    51   1 H    1.004 --    21 C    0.972
    52   1 H    1.005 --    22 C    0.968
    53   1 H    0.873 --    25 O    0.838
    54   1 H    1.005 --    27 C    0.970
    55   1 H    1.004 --    28 C    0.972
    56   1 H    1.004 --    30 C    0.972
    57   1 H    0.997 --    31 C    0.975
    58   1 H    1.003 --    36 C    0.972
    59   1 H    1.005 --    37 C    0.968
    60   1 H    0.873 --    40 O    0.838
    61   1 H    1.005 --    42 C    0.970
    62   1 H    1.003 --    43 C    0.972
    63  28 Ni   3.019 --    69 N    0.665    95 N    0.664    74 N    0.662
                            96 N    0.662
    64   6 C    3.935 --    65 C    1.365    94 C    1.363   106 H    0.970
    65   6 C    3.922 --    64 C    1.365    69 N    1.213    66 C    1.173
    66   6 C    3.960 --    67 C    1.652    65 C    1.173   107 H    0.975
    67   6 C    3.963 --    66 C    1.652    68 C    1.175   108 H    0.973
    68   6 C    3.920 --    70 C    1.325    69 N    1.220    67 C    1.175
    69   7 N    3.402 --    68 C    1.220    65 C    1.213    63 Ni   0.665
    70   6 C    3.938 --    71 C    1.327    68 C    1.325    97 C    1.023
    71   6 C    3.915 --    70 C    1.327    74 N    1.207    72 C    1.183
    72   6 C    3.959 --    73 C    1.636    71 C    1.183   109 H    0.972
    73   6 C    3.962 --    72 C    1.636    75 C    1.191   110 H    0.969
    74   7 N    3.406 --    75 C    1.236    71 C    1.207    63 Ni   0.662
    75   6 C    3.909 --    76 C    1.269    74 N    1.236    73 C    1.191
    76   6 C    3.945 --    77 C    1.270    75 C    1.269   126 C    1.169
    77   6 C    3.909 --    76 C    1.270    96 N    1.234    78 C    1.191
    78   6 C    3.962 --    79 C    1.635    77 C    1.191   111 H    0.969
    79   6 C    3.959 --    78 C    1.635    80 C    1.184   112 H    0.973
    80   6 C    3.915 --    81 C    1.322    96 N    1.210    79 C    1.184
    81   6 C    3.939 --    91 C    1.323    80 C    1.322    82 C    1.032
    82   6 C    3.987 --    90 C    1.385    83 C    1.385    81 C    1.032
    83   6 C    3.987 --    84 C    1.464    82 C    1.385   113 H    0.972
                            89 C    0.102
    84   6 C    3.990 --    83 C    1.464    85 C    1.385   114 H    0.968
                            90 C    0.103
    85   6 C    3.982 --    89 C    1.388    84 C    1.385    86 C    1.009
    86   6 C    3.836 --    88 O    1.690    87 O    1.088    85 C    1.009
    87   8 O    2.096 --    86 C    1.088   115 H    0.838    88 O    0.129
    88   8 O    1.958 --    86 C    1.690    87 O    0.129
    89   6 C    3.991 --    90 C    1.462    85 C    1.388   116 H    0.970
                            83 C    0.102
    90   6 C    3.987 --    89 C    1.462    82 C    1.385   117 H    0.972
                            84 C    0.103
    91   6 C    3.920 --    81 C    1.323    95 N    1.221    92 C    1.176
    92   6 C    3.963 --    93 C    1.650    91 C    1.176   118 H    0.972
    93   6 C    3.960 --    92 C    1.650    94 C    1.174   119 H    0.975
    94   6 C    3.922 --    64 C    1.363    95 N    1.213    93 C    1.174
    95   7 N    3.402 --    91 C    1.221    94 C    1.213    63 Ni   0.664
    96   7 N    3.406 --    77 C    1.234    80 C    1.210    63 Ni   0.662
    97   6 C    3.986 --   105 C    1.389    98 C    1.388    70 C    1.023
    98   6 C    3.988 --    99 C    1.463    97 C    1.388   120 H    0.972
                           104 C    0.103
    99   6 C    3.990 --    98 C    1.463   100 C    1.386   121 H    0.968
                           105 C    0.103
   100   6 C    3.984 --   104 C    1.389    99 C    1.386   101 C    1.009
   101   6 C    3.836 --   103 O    1.690   102 O    1.088   100 C    1.009
   102   8 O    2.096 --   101 C    1.088   122 H    0.838   103 O    0.129
   103   8 O    1.959 --   101 C    1.690   102 O    0.129
   104   6 C    3.991 --   105 C    1.460   100 C    1.389   123 H    0.970
                            98 C    0.103
   105   6 C    3.988 --   104 C    1.460    97 C    1.389   124 H    0.972
                            99 C    0.103
   106   1 H    1.000 --    64 C    0.970
   107   1 H    0.997 --    66 C    0.975
   108   1 H    1.004 --    67 C    0.973
   109   1 H    1.004 --    72 C    0.972
   110   1 H    1.005 --    73 C    0.969
   111   1 H    1.005 --    78 C    0.969
   112   1 H    1.004 --    79 C    0.973
   113   1 H    1.004 --    83 C    0.972
   114   1 H    1.005 --    84 C    0.968
   115   1 H    0.873 --    87 O    0.838
   116   1 H    1.005 --    89 C    0.970
   117   1 H    1.004 --    90 C    0.972
   118   1 H    1.004 --    92 C    0.972
   119   1 H    0.997 --    93 C    0.975
   120   1 H    1.003 --    98 C    0.972
   121   1 H    1.005 --    99 C    0.968
   122   1 H    0.873 --   102 O    0.838
   123   1 H    1.005 --   104 C    0.970
   124   1 H    1.003 --   105 C    0.972
   125   6 C    3.937 --   126 C    2.589    14 C    1.169
   126   6 C    3.937 --   125 C    2.589    76 C    1.169
 ---------------------------------------------------------------------------

Topologies differ in total number of bonds
Writing topology from bond orders to xtbtopo.mol

 dipole moment from electron density (au)
     X       Y       Z   
  -0.0002   2.5078   0.1452  total (Debye):    6.385

           -------------------------------------------------
          |                Geometry Summary                 |
           -------------------------------------------------

      molecular mass/u    :     1236.4888208
   center of mass at/Å    :       24.4462202      -0.0280991      -0.0016257
  moments of inertia/u·Å² :        0.3317041E+05   0.3976237E+05   0.7200919E+05
rotational constants/cm⁻¹ :        0.5082130E-03   0.4239595E-03   0.2341039E-03

 * 127 selected distances

     #   Z          #   Z                                           value/Å
     2   6 C        3   6 C                                       1.3794269
     3   6 C        4   6 C                                       1.4314140
     4   6 C        5   6 C                                       1.3532903
     5   6 C        6   6 C                                       1.4340025
     3   6 C        7   7 N                                       1.3725370
     6   6 C        7   7 N                                       1.3724948
     6   6 C        8   6 C                                       1.3885127
     8   6 C        9   6 C                                       1.3887447
     9   6 C       10   6 C                                       1.4315430
    10   6 C       11   6 C                                       1.3543933
     9   6 C       12   7 N                                       1.3764463
    11   6 C       13   6 C                                       1.4280831
    12   7 N       13   6 C                                       1.3684381
    13   6 C       14   6 C                                       1.3970889
    14   6 C       15   6 C                                       1.3967809
    15   6 C       16   6 C                                       1.4279520
    16   6 C       17   6 C                                       1.3547660
    17   6 C       18   6 C                                       1.4313823
    18   6 C       19   6 C                                       1.3897398
    20   6 C       21   6 C                                       1.3974024
    21   6 C       22   6 C                                       1.3827134
    22   6 C       23   6 C                                       1.3961603
    24   6 C       25   8 O                                       1.3416679
    24   6 C       26   8 O                                       1.2047047
    23   6 C       27   6 C                                       1.3952437
    20   6 C       28   6 C                                       1.3974681
    27   6 C       28   6 C                                       1.3837648
    19   6 C       29   6 C                                       1.3890671
    29   6 C       30   6 C                                       1.4340590
    30   6 C       31   6 C                                       1.3535366
     2   6 C       32   6 C                                       1.3795483
    31   6 C       32   6 C                                       1.4311730
    29   6 C       33   7 N                                       1.3725335
    32   6 C       33   7 N                                       1.3723615
    15   6 C       34   7 N                                       1.3689948
    18   6 C       34   7 N                                       1.3756258
    35   6 C       36   6 C                                       1.3968713
    36   6 C       37   6 C                                       1.3828609
    37   6 C       38   6 C                                       1.3961179
    39   6 C       40   8 O                                       1.3415432
    39   6 C       41   8 O                                       1.2044732
    38   6 C       42   6 C                                       1.3952357
    35   6 C       43   6 C                                       1.3965745
    42   6 C       43   6 C                                       1.3841863
     2   6 C       44   1 H                                       1.0837186
     4   6 C       45   1 H                                       1.0783282
     5   6 C       46   1 H                                       1.0778602
    10   6 C       47   1 H                                       1.0776344
    11   6 C       48   1 H                                       1.0776206
    16   6 C       49   1 H                                       1.0776414
    17   6 C       50   1 H                                       1.0776929
    21   6 C       51   1 H                                       1.0840472
    22   6 C       52   1 H                                       1.0844846
    25   8 O       53   1 H                                       0.9710054
    27   6 C       54   1 H                                       1.0835913
    28   6 C       55   1 H                                       1.0842089
    30   6 C       56   1 H                                       1.0778413
    31   6 C       57   1 H                                       1.0783214
    36   6 C       58   1 H                                       1.0840644
    37   6 C       59   1 H                                       1.0845267
    40   8 O       60   1 H                                       0.9709551 (min)
    42   6 C       61   1 H                                       1.0836626
    43   6 C       62   1 H                                       1.0842537
    64   6 C       65   6 C                                       1.3794267
    65   6 C       66   6 C                                       1.4314148
    66   6 C       67   6 C                                       1.3532900
    67   6 C       68   6 C                                       1.4340028
    65   6 C       69   7 N                                       1.3725364
    68   6 C       69   7 N                                       1.3724970
    68   6 C       70   6 C                                       1.3885102
    70   6 C       71   6 C                                       1.3887453
    71   6 C       72   6 C                                       1.4315436
    72   6 C       73   6 C                                       1.3543929
    71   6 C       74   7 N                                       1.3764437
    73   6 C       75   6 C                                       1.4280845
    74   7 N       75   6 C                                       1.3684371
    75   6 C       76   6 C                                       1.3970871
    76   6 C       77   6 C                                       1.3967820
    77   6 C       78   6 C                                       1.4279525
    78   6 C       79   6 C                                       1.3547656
    79   6 C       80   6 C                                       1.4313823
    80   6 C       81   6 C                                       1.3897403
    82   6 C       83   6 C                                       1.3974025
    83   6 C       84   6 C                                       1.3827135
    84   6 C       85   6 C                                       1.3961607
    86   6 C       87   8 O                                       1.3416671
    86   6 C       88   8 O                                       1.2047053
    85   6 C       89   6 C                                       1.3952440
    82   6 C       90   6 C                                       1.3974685
    89   6 C       90   6 C                                       1.3837643
    81   6 C       91   6 C                                       1.3890671
    91   6 C       92   6 C                                       1.4340610 (max)
    92   6 C       93   6 C                                       1.3535357
    64   6 C       94   6 C                                       1.3795484
    93   6 C       94   6 C                                       1.4311738
    91   6 C       95   7 N                                       1.3725333
    94   6 C       95   7 N                                       1.3723606
    77   6 C       96   7 N                                       1.3689935
    80   6 C       96   7 N                                       1.3756259
    97   6 C       98   6 C                                       1.3968729
    98   6 C       99   6 C                                       1.3828623
    99   6 C      100   6 C                                       1.3961215
   101   6 C      102   8 O                                       1.3415416
   101   6 C      103   8 O                                       1.2045291
   100   6 C      104   6 C                                       1.3952370
    97   6 C      105   6 C                                       1.3965754
   104   6 C      105   6 C                                       1.3841845
    64   6 C      106   1 H                                       1.0837185
    66   6 C      107   1 H                                       1.0783282
    67   6 C      108   1 H                                       1.0778604
    72   6 C      109   1 H                                       1.0776346
    73   6 C      110   1 H                                       1.0776209
    78   6 C      111   1 H                                       1.0776413
    79   6 C      112   1 H                                       1.0776928
    83   6 C      113   1 H                                       1.0840470
    84   6 C      114   1 H                                       1.0844843
    87   8 O      115   1 H                                       0.9710046
    89   6 C      116   1 H                                       1.0835916
    90   6 C      117   1 H                                       1.0842090
    92   6 C      118   1 H                                       1.0778412
    93   6 C      119   1 H                                       1.0783213
    98   6 C      120   1 H                                       1.0840638
    99   6 C      121   1 H                                       1.0845233
   102   8 O      122   1 H                                       0.9709774
   104   6 C      123   1 H                                       1.0836625
   105   6 C      124   1 H                                       1.0842541
   125   6 C      126   6 C                                       1.2159743

 * 5 distinct bonds (by element types)

   Z      Z             #   av. dist./Å        max./Å        min./Å
   1 H    6 C          34     1.0811469     1.0845267     1.0776206
   6 C    6 C          65     1.3934491     1.4340610     1.2159743
   6 C    7 N          16     1.3724287     1.3764463     1.3684371
   1 H    8 O           4     0.9709856     0.9710054     0.9709551
   6 C    8 O           8     1.2731040     1.3416679     1.2044732


optimized geometry written to: xtbopt.xyz


           -------------------------------------------------
          | TOTAL ENERGY             -239.913248907306 Eh   |
          | GRADIENT NORM               0.000769835055 Eh/α |
          | HOMO-LUMO GAP               1.232260397760 eV   |
           -------------------------------------------------

------------------------------------------------------------------------
 * finished run on 2022/07/30 at 06:07:40.627     
------------------------------------------------------------------------
 total:
 * wall-time:     0 d,  0 h,  0 min, 50.498 sec
 *  cpu-time:     0 d,  0 h,  0 min, 50.154 sec
 * ratio c/w:     0.993 speedup
 SCF:
 * wall-time:     0 d,  0 h,  0 min,  2.553 sec
 *  cpu-time:     0 d,  0 h,  0 min,  2.537 sec
 * ratio c/w:     0.993 speedup
 ANC optimizer:
 * wall-time:     0 d,  0 h,  0 min, 47.727 sec
 *  cpu-time:     0 d,  0 h,  0 min, 47.405 sec
 * ratio c/w:     0.993 speedup

