      -----------------------------------------------------------      
     |                   =====================                   |     
     |                           x T B                           |     
     |                   =====================                   |     
     |                         S. Grimme                         |     
     |          Mulliken Center for Theoretical Chemistry        |     
     |                    University of Bonn                     |     
      -----------------------------------------------------------      

   * xtb version 6.5.1 (b24c23e) compiled by 'conda@728c89f4b128' on 2022-07-12

   xtb is free software: you can redistribute it and/or modify it under
   the terms of the GNU Lesser General Public License as published by
   the Free Software Foundation, either version 3 of the License, or
   (at your option) any later version.
   
   xtb is distributed in the hope that it will be useful,
   but WITHOUT ANY WARRANTY; without even the implied warranty of
   MERCHANTABILITY or FITNESS FOR A PARTICULAR PURPOSE.  See the
   GNU Lesser General Public License for more details.
   
   Cite this work as:
   * C. Bannwarth, E. Caldeweyher, S. Ehlert, A. Hansen, P. Pracht,
     J. Seibert, S. Spicher, S. Grimme, WIREs Comput. Mol. Sci., 2020, 11,
     e01493. DOI: 10.1002/wcms.1493
   
   for GFN2-xTB:
   * C. Bannwarth, S. Ehlert and S. Grimme., J. Chem. Theory Comput., 2019,
     15, 1652-1671. DOI: 10.1021/acs.jctc.8b01176
   for GFN1-xTB:
   * S. Grimme, C. Bannwarth, P. Shushkov, J. Chem. Theory Comput., 2017,
     13, 1989-2009. DOI: 10.1021/acs.jctc.7b00118
   for GFN0-xTB:
   * P. Pracht, E. Caldeweyher, S. Ehlert, S. Grimme, ChemRxiv, 2019, preprint.
     DOI: 10.26434/chemrxiv.8326202.v1
   for GFN-FF:
   * S. Spicher and S. Grimme, Angew. Chem. Int. Ed., 2020, 59, 15665-15673.
     DOI: 10.1002/anie.202004239
   
   for ALPB and GBSA implicit solvation:
   * S. Ehlert, M. Stahn, S. Spicher, S. Grimme, J. Chem. Theory Comput.,
     2021, 17, 4250-4261. DOI: 10.1021/acs.jctc.1c00471
   
   for DFT-D4:
   * E. Caldeweyher, C. Bannwarth and S. Grimme, J. Chem. Phys., 2017,
     147, 034112. DOI: 10.1063/1.4993215
   * E. Caldeweyher, S. Ehlert, A. Hansen, H. Neugebauer, S. Spicher,
     C. Bannwarth and S. Grimme, J. Chem. Phys., 2019, 150, 154122.
     DOI: 10.1063/1.5090222
   * E. Caldeweyher, J.-M. Mewes, S. Ehlert and S. Grimme, Phys. Chem. Chem. Phys.
     2020, 22, 8499-8512. DOI: 10.1039/D0CP00502A
   
   for sTDA-xTB:
   * S. Grimme and C. Bannwarth, J. Chem. Phys., 2016, 145, 054103.
     DOI: 10.1063/1.4959605
   
   in the mass-spec context:
   * V. Asgeirsson, C. Bauer and S. Grimme, Chem. Sci., 2017, 8, 4879.
     DOI: 10.1039/c7sc00601b
   * J. Koopman and S. Grimme, ACS Omega 2019, 4, 12, 15120-15133.
     DOI: 10.1021/acsomega.9b02011
   
   for metadynamics refer to:
   * S. Grimme, J. Chem. Theory Comput., 2019, 155, 2847-2862
     DOI: 10.1021/acs.jctc.9b00143
   
   for SPH calculations refer to:
   * S. Spicher and S. Grimme, J. Chem. Theory Comput., 2021, 17, 1701-1714
     DOI: 10.1021/acs.jctc.0c01306
   
   with help from (in alphabetical order)
   P. Atkinson, C. Bannwarth, F. Bohle, G. Brandenburg, E. Caldeweyher
   M. Checinski, S. Dohm, S. Ehlert, S. Ehrlich, I. Gerasimov, C. Hölzer
   A. Katbashev, J. Koopman, C. Lavigne, S. Lehtola, F. März, M. Müller,
   F. Musil, H. Neugebauer, J. Pisarek, C. Plett, P. Pracht, F. Pultar,
   J. Seibert, P. Shushkov, S. Spicher, M. Stahn, M. Steiner, T. Strunk,
   J. Stückrath, T. Rose, and J. Unsleber
   
 * started run on 2022/07/30 at 06:07:40.649     

           -------------------------------------------------
          |                Calculation Setup                |
           -------------------------------------------------

          program call               : xtb xtbopt.xyz --gfn 1 --vipea
          hostname                   : cx3-14-28.cx3.hpc.ic.ac.uk
          coordinate file            : xtbopt.xyz
          omp threads                :                     1

   ID    Z sym.   atoms
    1   28 Ni     1, 63
    2    6 C      2-6, 8-11, 13-24, 27-32, 35-39, 42, 43, 64-68, 70-73,
                  75-86, 89-94, 97-101, 104, 105, 125, 126
    3    7 N      7, 12, 33, 34, 69, 74, 95, 96
    4    8 O      25, 26, 40, 41, 87, 88, 102, 103
    5    1 H      44-62, 106-124

           -------------------------------------------------
          |                 I P E A - x T B                 |
           -------------------------------------------------

        Reference                      10.1039/c7sc00601b
      * Hamiltonian:
        H0-scaling (s, p, d)           2.150000    2.300000    2.000000
        zeta-weighting                 0.000000
      * Dispersion:
        s8                             2.400000
        a1                             0.630000
        a2                             5.000000
        s9                             0.000000
      * Repulsion:
        kExp                           1.500000
        rExp                           1.000000
      * Coulomb:
        alpha                          1.000000
        third order                    atomic
        anisotropic                    false
      * Halogen bond correction:
        rad-scale                      1.300000
        damping                        0.440000


          ...................................................
          :                      SETUP                      :
          :.................................................:
          :  # basis functions                 526          :
          :  # atomic orbitals                 524          :
          :  # shells                          340          :
          :  # electrons                       426          :
          :  # halogen bonds                     0          :
          :  max. iterations                   250          :
          :  Hamiltonian                  GFN1-xTB          :
          :  restarted?                      false          :
          :  GBSA solvation                  false          :
          :  PC potential                    false          :
          :  electronic temp.          300.0000000     K    :
          :  accuracy                    1.0000000          :
          :  -> integral cutoff          0.2500000E+02      :
          :  -> integral neglect         0.1000000E-07      :
          :  -> SCF convergence          0.1000000E-05 Eh   :
          :  -> wf. convergence          0.2000000E-04 e    :
          :  Broyden damping             0.4000000          :
          ...................................................

 iter      E             dE          RMSdq      gap      omega  full diag
   1   -269.4473209 -0.269447E+03  0.102E+01    1.45       0.0  T
   2   -269.7902153 -0.342894E+00  0.629E+00    1.08       1.0  T
   3   -266.3347782  0.345544E+01  0.457E+00    1.16       1.0  T
   4   -270.5567620 -0.422198E+01  0.983E-01    1.78       1.0  T
   5   -270.8415339 -0.284772E+00  0.223E-01    1.60       1.0  T
   6   -270.8557329 -0.141990E-01  0.935E-02    1.65       1.0  T
   7   -270.8578537 -0.212081E-02  0.369E-02    1.63       1.0  T
   8   -270.8581068 -0.253040E-03  0.222E-02    1.63       1.0  T
   9   -270.8581694 -0.626090E-04  0.812E-03    1.63       1.1  T
  10   -270.8581799 -0.104618E-04  0.251E-03    1.63       3.6  T
  11   -270.8581814 -0.157789E-05  0.106E-03    1.63       8.4  T
  12   -270.8581817 -0.245482E-06  0.509E-04    1.63      17.5  T
  13   -270.8581817 -0.526276E-07  0.200E-04    1.63      44.5  T
  14   -270.8581817 -0.912752E-08  0.735E-05    1.63     121.2  T
  15   -270.8581817 -0.160543E-08  0.189E-05    1.63     471.1  T

   *** convergence criteria satisfied after 15 iterations ***

         #    Occupation            Energy/Eh            Energy/eV
      -------------------------------------------------------------
         1        2.0000           -1.0617690             -28.8922
       ...           ...                  ...                  ...
       207        2.0000           -0.3870166             -10.5313
       208        2.0000           -0.3868408             -10.5265
       209        2.0000           -0.3865886             -10.5196
       210        2.0000           -0.3865782             -10.5193
       211        2.0000           -0.3864369             -10.5155
       212        2.0000           -0.3864326             -10.5154
       213        2.0000           -0.3826330             -10.4120 (HOMO)
       214                         -0.3226441              -8.7796 (LUMO)
       215                         -0.3115953              -8.4789
       216                         -0.3115822              -8.4786
       217                         -0.3022173              -8.2238
       218                         -0.2773349              -7.5467
       ...                                ...                  ...
       524                        544.4770202           14815.9738
      -------------------------------------------------------------
                  HL-Gap            0.0599889 Eh            1.6324 eV
             Fermi-level           -0.3526386 Eh           -9.5958 eV

 SCC (total)                   0 d,  0 h,  0 min,  3.178 sec
 SCC setup                      ...        0 min,  0.004 sec (  0.127%)
 Dispersion                     ...        0 min,  0.006 sec (  0.185%)
 classical contributions        ...        0 min,  0.002 sec (  0.076%)
 integral evaluation            ...        0 min,  0.511 sec ( 16.088%)
 iterations                     ...        0 min,  1.594 sec ( 50.150%)
 molecular gradient             ...        0 min,  1.030 sec ( 32.410%)
 printout                       ...        0 min,  0.031 sec (  0.962%)

         :::::::::::::::::::::::::::::::::::::::::::::::::::::
         ::                     SUMMARY                     ::
         :::::::::::::::::::::::::::::::::::::::::::::::::::::
         :: total energy            -266.174346235223 Eh    ::
         :: gradient norm              0.074400262277 Eh/a0 ::
         :: HOMO-LUMO gap              1.632380967999 eV    ::
         ::.................................................::
         :: SCC energy              -270.858181741419 Eh    ::
         :: -> electrostatic           0.253867125302 Eh    ::
         :: repulsion energy           4.798295582321 Eh    ::
         :: dispersion energy         -0.114460076124 Eh    ::
         :: halogen bond corr.         0.000000000000 Eh    ::
         :: add. restraining           0.000000000000 Eh    ::
         :: total charge               0.000000000000 e     ::
         :::::::::::::::::::::::::::::::::::::::::::::::::::::

           ------------------------------------------------- 
          |        vertical delta SCC IP calculation        |
           ------------------------------------------------- 
   1   -270.4270013 -0.270427E+03  0.194E-01    1.63       0.0  T
   2   -270.4330532 -0.605189E-02  0.171E-01    1.65       1.0  T
   3   -270.4374904 -0.443718E-02  0.917E-02    1.63       1.0  T
   4   -270.4376890 -0.198642E-03  0.883E-02    1.62       1.0  T
   5   -270.4385108 -0.821803E-03  0.475E-02    1.63       1.0  T
   6   -270.4386157 -0.104910E-03  0.202E-02    1.62       1.0  T
   7   -270.4386954 -0.796910E-04  0.719E-03    1.62       1.2  T
   8   -270.4386268  0.685827E-04  0.181E-02    1.62       1.0  T
   9   -270.4386972 -0.704109E-04  0.699E-03    1.62       1.3  T
  10   -270.4387048 -0.757867E-05  0.365E-03    1.62       2.4  T
  11   -270.4387065 -0.169449E-05  0.151E-03    1.62       5.9  T
  12   -270.4387068 -0.279810E-06  0.368E-04    1.62      24.2  T
  13   -270.4387068 -0.191147E-07  0.271E-04    1.62      32.9  T
  14   -270.4387068 -0.130604E-07  0.287E-05    1.62     310.0  T
  15   -270.4387068 -0.152511E-09  0.265E-05    1.62     335.6  T
     SCC iter.                  ...        0 min,  1.576 sec
     gradient                   ...        0 min,  1.173 sec
------------------------------------------------------------------------
empirical IP shift (eV):    4.8455
delta SCC IP (eV):    6.5690
------------------------------------------------------------------------
           ------------------------------------------------- 
          |        vertical delta SCC EA calculation        |
           ------------------------------------------------- 
   1   -271.1028092 -0.271103E+03  0.292E-01    0.37       0.0  T
   2   -271.1304812 -0.276720E-01  0.218E-01    0.13       1.0  T
   3   -271.1403702 -0.988900E-02  0.132E-01    0.22       1.0  T
   4   -271.1419542 -0.158391E-02  0.882E-02    0.15       1.0  T
   5   -271.1421766 -0.222422E-03  0.517E-02    0.17       1.0  T
   6   -271.1425462 -0.369644E-03  0.254E-02    0.15       1.0  T
   7   -271.1427348 -0.188537E-03  0.758E-03    0.16       1.2  T
   8   -271.1427422 -0.741472E-05  0.451E-03    0.16       2.0  T
   9   -271.1427462 -0.407167E-05  0.156E-03    0.16       5.7  T
  10   -271.1427466 -0.336860E-06  0.721E-04    0.16      12.4  T
  11   -271.1427466 -0.488683E-08  0.422E-04    0.16      21.1  T
  12   -271.1427466 -0.525613E-07  0.104E-04    0.16      85.9  T
  13   -271.1427466 -0.254369E-08  0.475E-05    0.16     187.7  T
     SCC iter.                  ...        0 min,  1.304 sec
     gradient                   ...        0 min,  1.186 sec
------------------------------------------------------------------------
empirical EA shift (eV):    4.8455
delta SCC EA (eV):    2.8979
------------------------------------------------------------------------
           -------------------------------------------------
          |                Property Printout                |
           -------------------------------------------------

    * Orbital Energies and Occupations

         #    Occupation            Energy/Eh            Energy/eV
      -------------------------------------------------------------
         1        2.0000           -1.0127510             -27.5584
       ...           ...                  ...                  ...
       202        2.0000           -0.3264316              -8.8827
       203        2.0000           -0.3227736              -8.7831
       204        2.0000           -0.3227642              -8.7829
       205        2.0000           -0.3147332              -8.5643
       206        2.0000           -0.3147133              -8.5638
       207        2.0000           -0.3126393              -8.5073
       208        2.0000           -0.3124622              -8.5025
       209        2.0000           -0.3123177              -8.4986
       210        2.0000           -0.3122470              -8.4967
       211        2.0000           -0.3121438              -8.4939
       212        2.0000           -0.3121340              -8.4936
       213        2.0000           -0.3080358              -8.3821
       214        0.9382           -0.2466737              -6.7123 (HOMO)
       215        0.0311           -0.2408217              -6.5531 (LUMO)
       216        0.0307           -0.2408087              -6.5527
       217                         -0.2270943              -6.1795
       218                         -0.2192769              -5.9668
       219                         -0.2181008              -5.9348
       220                         -0.2131107              -5.7990
       221                         -0.2130593              -5.7976
       222                         -0.2011656              -5.4740
       223                         -0.2007301              -5.4621
       224                         -0.1967317              -5.3533
       225                         -0.1959825              -5.3330
       ...                                ...                  ...
       524                        544.5539799           14818.0680
      -------------------------------------------------------------
                  HL-Gap            0.0058520 Eh            0.1592 eV
             Fermi-level           -0.2607219 Eh           -7.0946 eV

  Mulliken/CM5 charges         n(s)   n(p)   n(d)
     1Ni    0.25667  0.63024   0.575  0.794  8.374
     2C    -0.03335 -0.07468   1.074  2.959  0.000
     3C     0.05595  0.11652   1.111  2.833  0.000
     4C    -0.04396 -0.09047   1.084  2.960  0.000
     5C    -0.04037 -0.08639   1.078  2.962  0.000
     6C     0.05422  0.11827   1.100  2.846  0.000
     7N    -0.21482 -0.46709   1.314  3.901  0.000
     8C     0.00557  0.01091   1.082  2.912  0.000
     9C     0.05335  0.11674   1.097  2.850  0.000
    10C    -0.04048 -0.08651   1.072  2.968  0.000
    11C    -0.03889 -0.08479   1.077  2.962  0.000
    12N    -0.21034 -0.46256   1.316  3.894  0.000
    13C     0.06034  0.12533   1.114  2.825  0.000
    14C     0.00783  0.01469   1.072  2.920  0.000
    15C     0.06010  0.12497   1.114  2.826  0.000
    16C    -0.03889 -0.08481   1.076  2.963  0.000
    17C    -0.04040 -0.08655   1.072  2.968  0.000
    18C     0.05344  0.11690   1.098  2.849  0.000
    19C     0.00480  0.01012   1.082  2.914  0.000
    20C     0.01701  0.00819   1.096  2.887  0.000
    21C    -0.01767 -0.07095   1.079  2.939  0.000
    22C    -0.01419 -0.06578   1.089  2.925  0.000
    23C     0.00293 -0.00056   1.086  2.911  0.000
    24C     0.23146  0.28639   1.195  2.574  0.000
    25O    -0.28251 -0.47904   1.682  4.601  0.000
    26O    -0.33599 -0.38569   1.629  4.707  0.000
    27C    -0.01557 -0.06719   1.086  2.929  0.000
    28C    -0.01761 -0.07085   1.079  2.938  0.000
    29C     0.05444  0.11842   1.100  2.845  0.000
    30C    -0.04000 -0.08617   1.078  2.962  0.000
    31C    -0.04372 -0.09024   1.083  2.961  0.000
    32C     0.05603  0.11662   1.111  2.833  0.000
    33N    -0.21492 -0.46714   1.314  3.901  0.000
    34N    -0.21032 -0.46252   1.316  3.894  0.000
    35C     0.01769  0.00881   1.097  2.885  0.000
    36C    -0.01745 -0.07066   1.079  2.938  0.000
    37C    -0.01368 -0.06525   1.090  2.924  0.000
    38C     0.00298 -0.00051   1.086  2.911  0.000
    39C     0.23167  0.28663   1.195  2.573  0.000
    40O    -0.28280 -0.47936   1.682  4.601  0.000
    41O    -0.33535 -0.38508   1.628  4.707  0.000
    42C    -0.01569 -0.06731   1.087  2.929  0.000
    43C    -0.01819 -0.07148   1.079  2.939  0.000
    44H     0.01476  0.07376   0.985  0.000  0.000
    45H     0.02152  0.07816   0.978  0.000  0.000
    46H     0.01567  0.07457   0.984  0.000  0.000
    47H     0.01670  0.07576   0.983  0.000  0.000
    48H     0.01489  0.07347   0.985  0.000  0.000
    49H     0.01423  0.07274   0.986  0.000  0.000
    50H     0.01569  0.07466   0.984  0.000  0.000
    51H     0.02403  0.08201   0.976  0.000  0.000
    52H     0.03944  0.09994   0.961  0.000  0.000
    53H     0.23819  0.41399   0.762  0.000  0.000
    54H     0.04178  0.10302   0.958  0.000  0.000
    55H     0.02466  0.08264   0.975  0.000  0.000
    56H     0.01499  0.07390   0.985  0.000  0.000
    57H     0.02164  0.07828   0.978  0.000  0.000
    58H     0.02456  0.08228   0.975  0.000  0.000
    59H     0.04005  0.10054   0.960  0.000  0.000
    60H     0.23809  0.41392   0.762  0.000  0.000
    61H     0.04111  0.10233   0.959  0.000  0.000
    62H     0.02349  0.08117   0.977  0.000  0.000
    63Ni    0.25667  0.63024   0.575  0.794  8.374
    64C    -0.03334 -0.07468   1.074  2.959  0.000
    65C     0.05595  0.11652   1.111  2.833  0.000
    66C    -0.04396 -0.09047   1.084  2.960  0.000
    67C    -0.04037 -0.08639   1.078  2.962  0.000
    68C     0.05422  0.11827   1.100  2.846  0.000
    69N    -0.21482 -0.46709   1.314  3.901  0.000
    70C     0.00557  0.01091   1.082  2.912  0.000
    71C     0.05336  0.11674   1.097  2.850  0.000
    72C    -0.04048 -0.08651   1.072  2.968  0.000
    73C    -0.03889 -0.08478   1.077  2.962  0.000
    74N    -0.21034 -0.46255   1.316  3.894  0.000
    75C     0.06034  0.12534   1.114  2.825  0.000
    76C     0.00784  0.01470   1.072  2.920  0.000
    77C     0.06010  0.12497   1.114  2.826  0.000
    78C    -0.03889 -0.08481   1.076  2.963  0.000
    79C    -0.04040 -0.08655   1.072  2.968  0.000
    80C     0.05344  0.11690   1.098  2.849  0.000
    81C     0.00480  0.01012   1.082  2.914  0.000
    82C     0.01701  0.00819   1.096  2.887  0.000
    83C    -0.01767 -0.07095   1.079  2.939  0.000
    84C    -0.01419 -0.06578   1.089  2.925  0.000
    85C     0.00293 -0.00056   1.086  2.911  0.000
    86C     0.23146  0.28639   1.195  2.574  0.000
    87O    -0.28251 -0.47904   1.682  4.601  0.000
    88O    -0.33599 -0.38569   1.629  4.707  0.000
    89C    -0.01557 -0.06719   1.086  2.929  0.000
    90C    -0.01761 -0.07085   1.079  2.938  0.000
    91C     0.05444  0.11843   1.100  2.845  0.000
    92C    -0.04000 -0.08617   1.078  2.962  0.000
    93C    -0.04372 -0.09024   1.083  2.961  0.000
    94C     0.05603  0.11662   1.111  2.833  0.000
    95N    -0.21492 -0.46714   1.314  3.901  0.000
    96N    -0.21032 -0.46252   1.316  3.894  0.000
    97C     0.01769  0.00881   1.097  2.885  0.000
    98C    -0.01744 -0.07066   1.079  2.938  0.000
    99C    -0.01367 -0.06525   1.090  2.924  0.000
   100C     0.00298 -0.00051   1.086  2.911  0.000
   101C     0.23167  0.28662   1.195  2.573  0.000
   102O    -0.28279 -0.47934   1.682  4.601  0.000
   103O    -0.33537 -0.38510   1.629  4.707  0.000
   104C    -0.01569 -0.06731   1.087  2.929  0.000
   105C    -0.01819 -0.07148   1.079  2.939  0.000
   106H     0.01476  0.07376   0.985  0.000  0.000
   107H     0.02152  0.07816   0.978  0.000  0.000
   108H     0.01567  0.07457   0.984  0.000  0.000
   109H     0.01670  0.07576   0.983  0.000  0.000
   110H     0.01489  0.07347   0.985  0.000  0.000
   111H     0.01423  0.07274   0.986  0.000  0.000
   112H     0.01569  0.07466   0.984  0.000  0.000
   113H     0.02403  0.08201   0.976  0.000  0.000
   114H     0.03944  0.09994   0.961  0.000  0.000
   115H     0.23819  0.41399   0.762  0.000  0.000
   116H     0.04178  0.10302   0.958  0.000  0.000
   117H     0.02466  0.08264   0.975  0.000  0.000
   118H     0.01499  0.07390   0.985  0.000  0.000
   119H     0.02164  0.07828   0.978  0.000  0.000
   120H     0.02457  0.08228   0.975  0.000  0.000
   121H     0.04005  0.10054   0.960  0.000  0.000
   122H     0.23809  0.41391   0.762  0.000  0.000
   123H     0.04111  0.10233   0.959  0.000  0.000
   124H     0.02349  0.08117   0.977  0.000  0.000
   125C    -0.03486 -0.03724   1.068  2.967  0.000
   126C    -0.03486 -0.03724   1.068  2.967  0.000

Wiberg/Mayer (AO) data.
largest (>0.10) Wiberg bond orders for each atom

 ---------------------------------------------------------------------------
     #   Z sym  total        # sym  WBO       # sym  WBO       # sym  WBO
 ---------------------------------------------------------------------------
     1  28 Ni   3.328 --    12 N    0.717    34 N    0.717     7 N    0.716
                            33 N    0.715
     2   6 C    3.776 --     3 C    1.385    32 C    1.384    44 H    0.997
     3   6 C    3.942 --     2 C    1.385     7 N    1.256     4 C    1.204
     4   6 C    3.834 --     5 C    1.633     3 C    1.204    45 H    0.994
     5   6 C    3.827 --     4 C    1.633     6 C    1.212    46 H    1.000
     6   6 C    3.906 --     8 C    1.372     7 N    1.239     5 C    1.212
     7   7 N    2.992 --     3 C    1.256     6 C    1.239     1 Ni   0.716
     8   6 C    3.825 --     6 C    1.372     9 C    1.360    35 C    1.047
     9   6 C    3.890 --     8 C    1.360    12 N    1.233    10 C    1.226
    10   6 C    3.807 --    11 C    1.606     9 C    1.226    47 H    0.999
    11   6 C    3.805 --    10 C    1.606    13 C    1.237    48 H    0.999
    12   7 N    3.010 --    13 C    1.282     9 C    1.233     1 Ni   0.717
    13   6 C    3.914 --    14 C    1.287    12 N    1.282    11 C    1.237
    14   6 C    3.792 --    13 C    1.287    15 C    1.287   125 C    1.224
    15   6 C    3.913 --    14 C    1.287    34 N    1.279    16 C    1.238
    16   6 C    3.804 --    17 C    1.603    15 C    1.238    49 H    0.999
    17   6 C    3.807 --    16 C    1.603    18 C    1.228    50 H    0.999
    18   6 C    3.891 --    19 C    1.354    34 N    1.236    17 C    1.228
    19   6 C    3.825 --    29 C    1.371    18 C    1.354    20 C    1.056
    20   6 C    3.898 --    28 C    1.417    21 C    1.417    19 C    1.056
    21   6 C    3.866 --    22 C    1.467    20 C    1.417    51 H    0.989
    22   6 C    3.896 --    21 C    1.467    23 C    1.398    52 H    0.987
    23   6 C    3.895 --    22 C    1.398    27 C    1.396    24 C    1.042
    24   6 C    4.096 --    26 O    1.812    25 O    1.208    23 C    1.042
    25   8 O    2.366 --    24 C    1.208    53 H    0.946    26 O    0.182
    26   8 O    2.026 --    24 C    1.812    25 O    0.182
    27   6 C    3.892 --    28 C    1.465    23 C    1.396    54 H    0.987
    28   6 C    3.868 --    27 C    1.465    20 C    1.417    55 H    0.989
    29   6 C    3.908 --    19 C    1.371    33 N    1.239    30 C    1.212
    30   6 C    3.827 --    31 C    1.633    29 C    1.212    56 H    1.000
    31   6 C    3.833 --    30 C    1.633    32 C    1.204    57 H    0.994
    32   6 C    3.942 --     2 C    1.384    33 N    1.256    31 C    1.204
    33   7 N    2.990 --    32 C    1.256    29 C    1.239     1 Ni   0.715
    34   7 N    3.009 --    15 C    1.279    18 C    1.236     1 Ni   0.717
    35   6 C    3.898 --    43 C    1.422    36 C    1.420     8 C    1.047
    36   6 C    3.868 --    37 C    1.465    35 C    1.420    58 H    0.989
    37   6 C    3.897 --    36 C    1.465    38 C    1.398    59 H    0.987
    38   6 C    3.896 --    37 C    1.398    42 C    1.398    39 C    1.042
    39   6 C    4.096 --    41 O    1.813    40 O    1.208    38 C    1.042
    40   8 O    2.366 --    39 C    1.208    60 H    0.946    41 O    0.182
    41   8 O    2.027 --    39 C    1.813    40 O    0.182
    42   6 C    3.892 --    43 C    1.464    38 C    1.398    61 H    0.987
    43   6 C    3.870 --    42 C    1.464    35 C    1.422    62 H    0.989
    44   1 H    1.042 --     2 C    0.997
    45   1 H    1.029 --     4 C    0.994
    46   1 H    1.044 --     5 C    1.000
    47   1 H    1.043 --    10 C    0.999
    48   1 H    1.048 --    11 C    0.999
    49   1 H    1.050 --    16 C    0.999
    50   1 H    1.046 --    17 C    0.999
    51   1 H    1.055 --    21 C    0.989
    52   1 H    1.034 --    22 C    0.987
    53   1 H    0.984 --    25 O    0.946
    54   1 H    1.024 --    27 C    0.987
    55   1 H    1.055 --    28 C    0.989
    56   1 H    1.047 --    30 C    1.000
    57   1 H    1.030 --    31 C    0.994
    58   1 H    1.054 --    36 C    0.989
    59   1 H    1.034 --    37 C    0.987
    60   1 H    0.984 --    40 O    0.946
    61   1 H    1.024 --    42 C    0.987
    62   1 H    1.056 --    43 C    0.989
    63  28 Ni   3.328 --    74 N    0.717    96 N    0.717    69 N    0.716
                            95 N    0.715
    64   6 C    3.776 --    65 C    1.385    94 C    1.384   106 H    0.997
    65   6 C    3.942 --    64 C    1.385    69 N    1.256    66 C    1.204
    66   6 C    3.834 --    67 C    1.633    65 C    1.204   107 H    0.994
    67   6 C    3.827 --    66 C    1.633    68 C    1.212   108 H    1.000
    68   6 C    3.906 --    70 C    1.372    69 N    1.239    67 C    1.212
    69   7 N    2.992 --    65 C    1.256    68 C    1.239    63 Ni   0.716
    70   6 C    3.825 --    68 C    1.372    71 C    1.360    97 C    1.047
    71   6 C    3.890 --    70 C    1.360    74 N    1.233    72 C    1.226
    72   6 C    3.807 --    73 C    1.606    71 C    1.226   109 H    0.999
    73   6 C    3.805 --    72 C    1.606    75 C    1.237   110 H    0.999
    74   7 N    3.010 --    75 C    1.282    71 C    1.233    63 Ni   0.717
    75   6 C    3.914 --    76 C    1.287    74 N    1.282    73 C    1.237
    76   6 C    3.792 --    75 C    1.287    77 C    1.287   126 C    1.224
    77   6 C    3.913 --    76 C    1.287    96 N    1.279    78 C    1.238
    78   6 C    3.804 --    79 C    1.603    77 C    1.238   111 H    0.999
    79   6 C    3.807 --    78 C    1.603    80 C    1.228   112 H    0.999
    80   6 C    3.891 --    81 C    1.354    96 N    1.236    79 C    1.228
    81   6 C    3.825 --    91 C    1.371    80 C    1.354    82 C    1.056
    82   6 C    3.898 --    90 C    1.417    83 C    1.417    81 C    1.056
    83   6 C    3.866 --    84 C    1.467    82 C    1.417   113 H    0.989
    84   6 C    3.896 --    83 C    1.467    85 C    1.398   114 H    0.987
    85   6 C    3.895 --    84 C    1.398    89 C    1.396    86 C    1.042
    86   6 C    4.096 --    88 O    1.812    87 O    1.208    85 C    1.042
    87   8 O    2.366 --    86 C    1.208   115 H    0.946    88 O    0.182
    88   8 O    2.026 --    86 C    1.812    87 O    0.182
    89   6 C    3.892 --    90 C    1.465    85 C    1.396   116 H    0.987
    90   6 C    3.868 --    89 C    1.465    82 C    1.417   117 H    0.989
    91   6 C    3.908 --    81 C    1.371    95 N    1.239    92 C    1.212
    92   6 C    3.827 --    93 C    1.633    91 C    1.212   118 H    1.000
    93   6 C    3.833 --    92 C    1.633    94 C    1.204   119 H    0.994
    94   6 C    3.942 --    64 C    1.384    95 N    1.256    93 C    1.204
    95   7 N    2.990 --    94 C    1.256    91 C    1.239    63 Ni   0.715
    96   7 N    3.009 --    77 C    1.279    80 C    1.236    63 Ni   0.717
    97   6 C    3.898 --   105 C    1.422    98 C    1.420    70 C    1.047
    98   6 C    3.868 --    99 C    1.465    97 C    1.420   120 H    0.989
    99   6 C    3.897 --    98 C    1.465   100 C    1.398   121 H    0.987
   100   6 C    3.896 --    99 C    1.398   104 C    1.398   101 C    1.042
   101   6 C    4.096 --   103 O    1.813   102 O    1.208   100 C    1.042
   102   8 O    2.366 --   101 C    1.208   122 H    0.946   103 O    0.182
   103   8 O    2.027 --   101 C    1.813   102 O    0.182
   104   6 C    3.892 --   105 C    1.464   100 C    1.398   123 H    0.987
   105   6 C    3.870 --   104 C    1.464    97 C    1.422   124 H    0.989
   106   1 H    1.042 --    64 C    0.997
   107   1 H    1.029 --    66 C    0.994
   108   1 H    1.044 --    67 C    1.000
   109   1 H    1.043 --    72 C    0.999
   110   1 H    1.048 --    73 C    0.999
   111   1 H    1.050 --    78 C    0.999
   112   1 H    1.046 --    79 C    0.999
   113   1 H    1.055 --    83 C    0.989
   114   1 H    1.034 --    84 C    0.987
   115   1 H    0.984 --    87 O    0.946
   116   1 H    1.024 --    89 C    0.987
   117   1 H    1.055 --    90 C    0.989
   118   1 H    1.047 --    92 C    1.000
   119   1 H    1.030 --    93 C    0.994
   120   1 H    1.054 --    98 C    0.989
   121   1 H    1.034 --    99 C    0.987
   122   1 H    0.984 --   102 O    0.946
   123   1 H    1.024 --   104 C    0.987
   124   1 H    1.056 --   105 C    0.989
   125   6 C    3.757 --   126 C    2.598    14 C    1.224
   126   6 C    3.757 --   125 C    2.598    76 C    1.224
 ---------------------------------------------------------------------------

Topologies differ in total number of bonds
Writing topology from bond orders to xtbtopo.mol

 dipole moment from electron density (au)
     X       Y       Z   
 -46.1963   2.3428   0.1357  total (Debye):  117.571


           -------------------------------------------------
          | TOTAL ENERGY             -266.458911132274 Eh   |
          | GRADIENT NORM               0.090205552942 Eh/α |
          | HOMO-LUMO GAP               0.159240783888 eV   |
           -------------------------------------------------
########################################################################
[WARNING] Runtime exception occurred
-1- restart_readRestart: Dimension missmatch in restart file.
########################################################################

------------------------------------------------------------------------
 * finished run on 2022/07/30 at 06:07:50.559     
------------------------------------------------------------------------
 total:
 * wall-time:     0 d,  0 h,  0 min,  9.910 sec
 *  cpu-time:     0 d,  0 h,  0 min,  9.843 sec
 * ratio c/w:     0.993 speedup
 SCF:
 * wall-time:     0 d,  0 h,  0 min,  9.403 sec
 *  cpu-time:     0 d,  0 h,  0 min,  9.342 sec
 * ratio c/w:     0.994 speedup

