126
 energy: -239.284544489788 gnorm: 1.719715064667 xtb: 6.5.1 (b24c23e)
Ni          19.33485200000000        0.00444600000000        0.01621000000000
C           15.91682700000000       -0.10256900000000        0.10543000000000
C           16.58211900000000       -0.20416300000000        1.25956300000000
C           15.93425700000000       -0.34669200000000        2.55814700000000
C           16.87638200000000       -0.36770700000000        3.48259100000000
C           18.17942100000000       -0.23745700000000        2.81676800000000
N           17.99994200000000       -0.13879400000000        1.40370100000000
C           19.36857700000000       -0.16652700000000        3.44789400000000
C           20.66006200000000       -0.00685600000000        2.73031100000000
C           21.94678800000000        0.20996600000000        3.40281700000000
C           22.88127400000000        0.26757900000000        2.47604300000000
N           20.80259900000000       -0.08538400000000        1.44251300000000
C           22.19972200000000        0.08047000000000        1.20091500000000
C           22.79604900000000        0.00000000000000        0.00000000000000
C           22.03831000000000       -0.21005100000000       -1.25471400000000
C           22.58141699999999       -0.62265800000000       -2.39317600000000
C           21.53762000000000       -0.61094400000000       -3.39875600000000
C           20.42544700000000       -0.18782000000000       -2.80935400000000
C           19.13745100000000        0.03517200000000       -3.51552200000000
C           19.15523700000000        0.17111400000000       -4.99251100000000
C           18.51209400000000       -0.77590000000000       -5.80351000000000
C           18.54755500000000       -0.65348000000000       -7.19532100000000
C           19.23387200000000        0.41513600000000       -7.79982300000000
C           19.27492300000000        0.54918000000000       -9.27266000000000
O           19.95892100000000        1.60930100000000       -9.86225000000000
O           18.69179900000000       -0.29358300000000      -10.00724400000000
C           19.88501700000000        1.35596400000000       -6.98328600000000
C           19.84803500000000        1.23269900000000       -5.59147900000000
C           17.97093200000000        0.11842300000000       -2.84738800000000
C           16.65529800000000        0.37065000000000       -3.43302100000000
C           15.79385500000000        0.32144900000000       -2.43562700000000
C           16.55003300000000        0.05158500000000       -1.21401900000000
N           17.82001400000000       -0.06810900000000       -1.44159300000000
N           20.65109900000000        0.08413400000000       -1.42475900000000
C           19.40832600000000       -0.23820500000000        4.92372900000000
C           19.34410300000000       -1.47917900000000        5.57078200000000
C           19.38341900000000       -1.54765000000000        6.96630000000000
C           19.48878600000000       -0.37395700000000        7.73505900000000
C           19.53132700000000       -0.44072600000000        9.21240300000000
O           19.63451100000000        0.72634000000000        9.96510700000000
O           19.47475000000000       -1.55306800000000        9.80343200000000
C           19.55363000000000        0.86781800000000        7.07866200000000
C           19.51359400000000        0.93445800000000        5.68304200000000
H           14.83358100000000       -0.12119500000000        0.13360700000000
H           14.87081800000000       -0.41492100000000        2.74836500000000
H           16.69227300000000       -0.45450500000000        4.54566800000000
H           22.12178400000000        0.30281400000000        4.46649200000000
H           23.93761400000000        0.41279500000000        2.65897900000000
H           23.61482600000000       -0.89775500000000       -2.55604300000000
H           21.65447200000000       -0.87681700000000       -4.44139700000000
H           17.98632300000000       -1.61089900000000       -5.35669400000000
H           18.04025200000000       -1.39696800000000       -7.79730100000000
H           19.99316400000000        1.71046000000000      -10.86964800000000
H           20.42444300000000        2.18771700000000       -7.41853100000000
H           20.35712800000000        1.96700000000000       -4.97907100000000
H           16.40831000000000        0.56465400000000       -4.46846000000000
H           14.72457500000000        0.46456100000000       -2.51992100000000
H           19.26341600000000       -2.39223200000000        4.99362900000000
H           19.33170100000000       -2.51875300000000        7.44250200000000
H           19.66443500000000        0.69188200000000       10.97712700000000
H           19.63543200000000        1.78863200000000        7.64223600000000
H           19.56491100000000        1.89912500000000        5.19305200000000
Ni          29.55758400000000        0.00628500000000       -0.01558900000000
C           32.97560800000000       -0.08972800000000       -0.11655400000000
C           32.31031600000000       -0.05755900000000       -1.27470300000000
C           32.95817900000000       -0.04939500000000       -2.58106100000000
C           32.01605300000000        0.03632900000000       -3.50176100000000
C           30.71301500000000        0.08893300000000       -2.82536000000000
N           30.89249400000000        0.02399500000000       -1.41034200000000
C           29.52385900000000        0.23216600000000       -3.44409700000000
C           28.23237300000000        0.30802600000000       -2.71288900000000
C           26.94564700000000        0.60094900000000       -3.35590600000000
C           26.01116200000000        0.55131000000000       -2.42867100000000
N           28.08983700000000        0.08152400000000       -1.44273600000000
C           26.69271400000000        0.21841300000000       -1.18362500000000
C           26.09638700000000        0.00000000000000        0.00000000000000
C           26.85412500000000       -0.35333300000000        1.22212300000000
C           26.31101800000000       -0.89446500000000        2.30541200000000
C           27.35481600000000       -0.99878400000000        3.30563600000000
C           28.46698800000000       -0.51051800000000        2.76895600000000
C           29.75498500000000       -0.37044200000000        3.49612700000000
C           29.73719900000000       -0.40572100000000        4.97893900000000
C           30.38034200000000       -1.43993600000000        5.67532700000000
C           30.34488100000000       -1.47882400000000        7.07197000000000
C           29.65856400000000       -0.48704300000000        7.79566300000000
C           29.61751200000000       -0.52372800000000        9.27413200000000
O           28.93351400000000        0.46133500000000        9.98203300000000
O           30.20063700000000       -1.44557500000000        9.90663600000000
C           29.00741900000000        0.54166500000000        7.09306100000000
C           29.04440000000000        0.57971400000000        5.69632500000000
C           30.92150300000000       -0.21070400000000        2.84204900000000
C           32.23713700000000       -0.02769000000000        3.45286100000000
C           33.09858100000000        0.03844900000000        2.45644700000000
C           32.34240300000000       -0.08875000000000        1.21186900000000
N           31.07242200000000       -0.23388700000000        1.42412300000000
N           28.24133700000000       -0.08071900000000        1.42495600000000
C           29.48410900000000        0.33114700000000       -4.91835300000000
C           29.54833300000000       -0.82693600000000       -5.70418800000000
C           29.50901700000000       -0.73403100000000       -7.09829200000000
C           29.40365000000000        0.52047900000000       -7.72658300000000
C           29.36110900000000        0.62451000000000       -9.20177100000000
O           29.25792500000000        1.87058700000000       -9.81487800000000
O           29.41768600000000       -0.41225900000000       -9.91712400000000
C           29.33880500000000        1.67828000000000       -6.93137300000000
C           29.37884100000000        1.58354500000000       -5.53737900000000
H           34.05885499999999       -0.10498000000000       -0.14669100000000
H           34.02161800000000       -0.09523500000000       -2.77787700000000
H           32.20016200000000        0.07269400000000       -4.56775500000000
H           26.77065199999999        0.81583200000000       -4.40178000000000
H           24.95482100000000        0.71665200000000       -2.59364200000000
H           25.27760900000000       -1.18650700000000        2.43547100000000
H           27.23796400000000       -1.38311200000000        4.31066300000000
H           30.90611300000000       -2.21784200000000        5.13520600000000
H           30.85218400000000       -2.28676800000000        7.58420200000000
H           28.89927100000000        0.44565500000000       10.99437600000000
H           28.46799300000000        1.31768100000000        7.62131400000000
H           28.53530800000000        1.37973500000000        5.17267600000000
H           32.48412600000000        0.04562300000000        4.50376400000000
H           34.16786000000000        0.17088600000000        2.55668000000000
H           29.62901900000000       -1.80045200000000       -5.23617000000000
H           29.56073500000000       -1.64374500000000       -7.68329700000000
H           29.22800100000000        1.95305600000000      -10.82412100000000
H           29.25700300000000        2.65793900000000       -7.38500800000000
H           29.32752500000000        2.48527500000000       -4.93942000000000
C           23.83525900000000        0.00000000000000        0.00000000000000
C           25.05717700000000        0.00000000000000        0.00000000000000
126
 energy: -239.684591416113 gnorm: 0.416839860988 xtb: 6.5.1 (b24c23e)
Ni          19.33143296479716       -0.00171184258011        0.01430664557358
C           15.91775308267661       -0.10090515050824        0.09191701862626
C           16.58954984021958       -0.20435177047039        1.26091525398392
C           15.93380891019552       -0.34647377162312        2.55250751475512
C           16.88404237569170       -0.36751584329851        3.48411596025630
C           18.17734682386758       -0.23794850666803        2.80971207146167
N           17.99064748756441       -0.13747503391580        1.41369937646959
C           19.38058213963517       -0.16529170226069        3.44613383619227
C           20.64955309682339       -0.00707676282669        2.75127723338771
C           21.93343551373315        0.20783422470395        3.41283094069413
C           22.87490159738355        0.26667488603399        2.46620358029109
N           20.79263580154524       -0.08025260188208        1.44379526378057
C           22.14821098863080        0.08203205286674        1.22428323671879
C           22.65176598237840       -0.00024372949309       -0.01306531711283
C           21.99517041536976       -0.20606797307785       -1.26023990515820
C           22.57809247691540       -0.62515755381256       -2.40996646732167
C           21.55312636432022       -0.61296195057764       -3.40188872231404
C           20.41242409835762       -0.18111460030646       -2.80310375930951
C           19.14722747096386        0.03448239873898       -3.51066810888463
C           19.15923243091819        0.16926744746662       -4.99197643040368
C           18.51320568529531       -0.77242815991317       -5.80648168356753
C           18.54966724723287       -0.64993569018530       -7.19488678904235
C           19.23656888747774        0.41938202654713       -7.80257492742040
C           19.27094088042467        0.54374321351972       -9.28849100401404
O           19.95482180001563        1.60298155561479       -9.85599315054013
O           18.70000811598667       -0.28136303011206       -9.99999783133971
C           19.88406849726311        1.35498129367688       -6.98119461154567
C           19.84770233073186        1.23065630773775       -5.59415465021495
C           17.97018866300747        0.11866139867049       -2.84482000677203
C           16.66202675300051        0.36979158261590       -3.43284360364886
C           15.78765824832337        0.31986931682011       -2.42615748292588
C           16.53703994825129        0.05073137163801       -1.20559153781123
N           17.82648692198254       -0.06231325543657       -1.44463436256397
N           20.64064547669117        0.07885551309709       -1.43051571254385
C           19.41049895480431       -0.23787525368956        4.92630928659364
C           19.34410538588827       -1.47639952992607        5.57520016797020
C           19.38360193015075       -1.54360242583625        6.96694863843000
C           19.48923602253829       -0.36934578226851        7.73850179453721
C           19.53127756039596       -0.44953893244682        9.22714618352614
O           19.63386353294602        0.71979885191493        9.95797059562015
O           19.47563129153152       -1.53750362505819        9.79830113016487
C           19.55348072326680        0.86682899753133        7.07700820255693
C           19.51414703430975        0.93227923435092        5.68629169067323
H           14.83413098890955       -0.12050347058162        0.13070586192117
H           14.87116546449064       -0.41469930183241        2.74358493051239
H           16.69800197783235       -0.45437804634996        4.54586485929502
H           22.11742166679873        0.30232251946284        4.46942162017826
H           23.93417959391688        0.41303050002126        2.65096325881216
H           23.61305596977864       -0.89912146649106       -2.55656453550539
H           21.65748023409293       -0.87767367350501       -4.44170686616002
H           17.98726074384048       -1.60958816945765       -5.35724238845487
H           18.04139521924223       -1.39526923072257       -7.79843467245823
H           19.98712489706530        1.70049652252892      -10.85254522862307
H           20.42386524487382        2.18701440018261       -7.41912298358474
H           20.35650339931088        1.96600022366530       -4.97932036168789
H           16.41372709259947        0.56388687509283       -4.46786352962700
H           14.72289633904661        0.46403274842441       -2.51576572436075
H           19.26365966017514       -2.39066340574064        4.99455511342293
H           19.33193504110496       -2.51693319572284        7.44410305634323
H           19.66326357612348        0.68270191023002       10.95866057382650
H           19.63535682246089        1.78772685709280        7.64292835398529
H           19.56484846410682        1.89785675523155        5.19331466857880
Ni          29.56100290286405       -0.00005122709693       -0.01440831902568
C           32.97468225451534       -0.08963342471227       -0.10293927003406
C           32.30288539299055       -0.05759055101710       -1.27606821034847
C           32.95862696053928       -0.04982856678730       -2.57543377955373
C           32.00839278803860        0.03669468253176       -3.50325369336988
C           30.71508894502387        0.08763119558422       -2.81840813825312
N           30.90178849503052        0.02645808643613       -1.42012140559821
C           29.51185401522238        0.23319008780688       -3.44220620487365
C           28.24288189108309        0.31022438276654       -2.73374087723628
C           26.95899990938120        0.59998618833891       -3.36609932661484
C           26.01753411180474        0.54927731545521       -2.41900123343658
N           28.09980012044000        0.08676899736532       -1.44341821381079
C           26.74422490944888        0.22265935670243       -1.20665723178938
C           26.24066976662968       -0.00174867349181        0.01295015186869
C           26.89726477334214       -0.35001381323830        1.22807131798877
C           26.31434265437890       -0.89888402109208        2.32180239041651
C           27.33930949479179       -1.00114971997938        3.30851491352923
C           28.48001104158350       -0.50313657597256        2.76352063019728
C           29.74520841744767       -0.37056740363100        3.49122600723793
C           29.73320356333788       -0.40749369755301        4.97819516005731
C           30.37923030057320       -1.43682990066657        5.67867906692086
C           30.34276879447427       -1.47525340775406        7.07194737153223
C           29.65586704195842       -0.48314259798978        7.79888627307872
C           29.62149427370192       -0.53095400241818        9.28923055821381
O           28.93761321178290        0.45577913086197        9.97508920519269
O           30.19242777063092       -1.43260089917502        9.90084722450078
C           29.00836740066261        0.54093009438977        7.09087039817458
C           29.04473283273720        0.57737638681906        5.69874717264381
C           30.92224651336231       -0.21017103563715        2.83952577409687
C           32.23040842312462       -0.02852213971913        3.45258574275869
C           33.10477747190057        0.03797169942755        2.44685851501524
C           32.35539601396141       -0.08862610693465        1.20339937732262
N           31.06594895646985       -0.22848070758909        1.42781227595424
N           28.25179043563893       -0.08662600878804        1.43006579623967
C           29.48193618320094        0.33177198918427       -4.92087792301381
C           29.54833053604042       -0.82366586834911       -5.70825607442891
C           29.50883407355313       -0.72993578615419       -7.09846972274721
C           29.40319992818079        0.52545648042738       -7.72947107854549
C           29.36115844069566        0.61745600546999       -9.21743219694656
O           29.25857246637727        1.86326652055843       -9.80854351209291
O           29.41680470824448       -0.39739010366400       -9.91023254784590
C           29.33895429888391        1.67710712557389       -6.92984453418028
C           29.37828799819105        1.58175548991386       -5.54085821081367
H           34.05830485200962       -0.10462762847209       -0.14372948425796
H           34.02127047509239       -0.09556596592735       -2.77310325240973
H           32.19443305729655        0.07284283785924       -4.56793602070787
H           26.77501436317242        0.81568159532823       -4.40474665549185
H           24.95825559478254        0.71596158015781       -2.58565247597080
H           25.27937906692794       -1.18792448300044        2.43583151055640
H           27.23495571397737       -1.38399871618628        4.31087210938891
H           30.90517522306581       -2.21660308026828        5.13590191354344
H           30.85104076923564       -2.28521125949641        7.58552394660753
H           28.90531010720298        0.43773011665032       10.97623837615121
H           28.46857075854679        1.31691480404511        7.62182099808097
H           28.53593254914714        1.37871315343799        5.17280834381130
H           32.47870885734574        0.04492973646849        4.50308292968814
H           34.16953886087021        0.17084045518371        2.55249161344769
H           29.62877536163137       -1.79878684090722       -5.23690915133837
H           29.56050097181725       -1.64175266849272       -7.68467751266631
H           29.22917242656141        1.94180775254496      -10.80683623831518
H           29.25707818712632        2.65711956111802       -7.38580003283468
H           29.32758749038762        2.48404560212946       -4.93982711897803
C           23.89317107219781       -0.00053490059944       -0.00651126917720
C           24.99926461009109       -0.00128217467623        0.00640628826906
126
 energy: -239.799346951456 gnorm: 0.256432426093 xtb: 6.5.1 (b24c23e)
Ni          19.31498583529823       -0.01841973619005        0.01186267687607
C           15.92053993016247       -0.09866723536881        0.07575951347487
C           16.59646722910346       -0.20412761189248        1.25924159833185
C           15.93740494555003       -0.34624947501732        2.54330408692101
C           16.89491599905320       -0.36767776790750        3.48255087469125
C           18.17589825018675       -0.23884225284443        2.80478025598679
N           17.97688845392023       -0.13235079564451        1.42828951564214
C           19.38721635365802       -0.16448209028851        3.45163039240861
C           20.62487279614052       -0.00595289567475        2.78494075225827
C           21.90970492279112        0.20277712638108        3.42720225099891
C           22.84571762465788        0.26563521135553        2.45752256580578
N           20.75584944496870       -0.06511317088125        1.45893247660622
C           22.08670169967230        0.08843110831667        1.23718816997458
C           22.55026659686163       -0.00368712995255       -0.02877541043488
C           21.93986913079578       -0.20304476671136       -1.26562924826536
C           22.56327123745389       -0.62213094654637       -2.43178337105202
C           21.56829121911638       -0.60826341716089       -3.40800052301926
C           20.39626657697445       -0.17327105072819       -2.80456420501841
C           19.15954625380292        0.03447383905377       -3.50499168688447
C           19.17017889130652        0.16393291320392       -4.99051673506758
C           18.51667479974842       -0.76574791848113       -5.81115610163052
C           18.55416130752915       -0.64111349022549       -7.19643804370495
C           19.24087825313968        0.42617362501875       -7.80599144405291
C           19.26664390126036        0.53736810844234       -9.30053053054353
O           19.94963637736276        1.59410532242745       -9.83261831920473
O           18.70757898058252       -0.26966683088430      -10.00053764257835
C           19.88351449545925        1.35513156745109       -6.97995263226965
C           19.84999060385466        1.22635344133072       -5.59690076461055
C           17.97107361862617        0.12204908425011       -2.83721278189211
C           16.66997522075952        0.36735282724277       -3.42416025698427
C           15.78131232604712        0.31551446381958       -2.41292477642009
C           16.52270348804406        0.05079348817096       -1.19599610554224
N           17.83162835620580       -0.04749557663218       -1.44619594091982
N           20.60693943949310        0.05846058217099       -1.44348548337151
C           19.41274576474219       -0.23682770345672        4.93375475179877
C           19.34410176432471       -1.47098423350129        5.58498910448717
C           19.38384768522828       -1.53495306664874        6.97280461962198
C           19.48986778505620       -0.36193719262362        7.74428071355704
C           19.53107704549723       -0.45886039516053        9.23867245415461
O           19.63264919353351        0.71290532698831        9.93377539977654
O           19.47654736116225       -1.52389388414828        9.80123989863434
C           19.55356136994349        0.86736576928212        7.07868768533232
C           19.51583729375765        0.93026413003540        5.69245010029225
H           14.83668312214523       -0.11792106821958        0.12209209980499
H           14.87408934529559       -0.41414854872782        2.72884068329036
H           16.71505359260743       -0.45417989002673        4.54484796016186
H           22.10440804795417        0.30005131505261        4.47998909728589
H           23.91086592831288        0.41298133586460        2.62709962429920
H           23.60096447327015       -0.90173837653002       -2.55701606663029
H           21.66592355634652       -0.87951778324475       -4.44477576566554
H           17.99081519138942       -1.60425359367672       -5.36087116948649
H           18.04625214412675       -1.38751214132999       -7.80191494751424
H           19.97133257812743        1.67465578975687      -10.81499306531505
H           20.42270458063687        2.18638613813999       -7.42046255221208
H           20.35541576188598        1.96300973941225       -4.98017426029107
H           16.42974082647248        0.56078336833956       -4.46186125127392
H           14.71797094728293        0.46159738704746       -2.50385964428908
H           19.26438207908478       -2.38470274431142        5.00035825336801
H           19.33265100427427       -2.50921222524430        7.45067446012661
H           19.66024288352122        0.65793921374934       10.91764499680366
H           19.63511304501464        1.78704014927463        7.64602553861956
H           19.56481372826564        1.89427809205674        5.19498936620672
Ni          29.57744994907646       -0.01692946854003       -0.01390736887857
C           32.97189560582608       -0.08927345499208       -0.08663161022868
C           32.29596818176658       -0.05756079141715       -1.27437999809940
C           32.95503080250712       -0.05066713937554       -2.56626563211917
C           31.99751936611913        0.03635331870997       -3.50171762515050
C           30.71653735515739        0.08617469928166       -2.81361211808989
N           30.91554740423000        0.03323043885908       -1.43402336175454
C           29.50521944261419        0.23462807172538       -3.44757262110039
C           28.26756245731179        0.31522254120598       -2.76705008869643
C           26.98273054072808        0.59662008519467       -3.38095802844666
C           26.04671795542514        0.54724370118495       -2.41049818650056
N           28.13658641940414        0.10355299331576       -1.45670877701217
C           26.80573413733822        0.23050359531751       -1.21873817431684
C           26.34216917276605       -0.00698074800625        0.02815827687955
C           26.95256627246474       -0.34763219163512        1.23377334533994
C           26.32916409693468       -0.89839327246966        2.34382297201190
C           27.32414445996222       -0.99718727468953        3.31512748223829
C           28.49616875322500       -0.49551371833705        2.76587577217304
C           29.73288946739018       -0.36992162299547        3.48558645200703
C           29.72225701801309       -0.41262448626868        4.97613012407246
C           30.37576116840469       -1.43073312504627        5.68409248022300
C           30.33827470873699       -1.46666908781676        7.07450552389616
C           29.65155757049310       -0.47679025676260        7.80306324417201
C           29.62579151646146       -0.53867480962525        9.30045475325714
O           28.94279865192310        0.44965740729602        9.95084680771446
O           30.18485676547704       -1.42104489831248        9.90273215185256
C           29.00892127404704        0.54122268006480        7.08965419517422
C           29.04244485370093        0.57278563776751        5.70097872545713
C           30.92136174527172       -0.20592871319091        2.83236006619017
C           32.22246014039401       -0.02994314636837        3.44367904172839
C           33.11112323316308        0.03517163276422        2.43321179905559
C           32.36973232078032       -0.08745786231716        1.19387511579563
N           31.06080740448882       -0.21394204326705        1.43107200230821
N           28.28549637435363       -0.10838038270007        1.44059745050046
C           29.47968953155475        0.33367098893366       -4.92815266681806
C           29.54833396801304       -0.81715812450630       -5.71735515570581
C           29.50858827076592       -0.72066902949097       -7.10328938119900
C           29.40256806506457        0.53348205596324       -7.73435715488883
C           29.36135895208162        0.60952596759845       -9.22995656659584
O           29.25978680186965        1.85362894819760       -9.78530465843944
O           29.41588864187142       -0.38353230438473       -9.91158229866198
C           29.33887375077109        1.67783418887458       -6.93145112082821
C           29.37659786908523        1.58046392790273       -5.54720782919602
H           34.05575255759265       -0.10305576264202       -0.13487544486870
H           34.01834647400501       -0.09671904102451       -2.75839382353155
H           32.17738156000157        0.07292251155289       -4.56690319480360
H           26.78802785675472        0.81464401248410       -4.41550541634989
H           24.98156947489587        0.71316100218483       -2.56195368339927
H           25.29147070205175       -1.19057592035710        2.43597837550302
H           27.22651224338439       -1.38618439037068        4.31370793567439
H           30.90162073551908       -2.21172240026580        5.14012165643420
H           30.84618385362949       -2.27790722242782        7.58987536830645
H           28.92110243197776        0.41639189748990       10.93595694570875
H           28.46973135377615        1.31613630074419        7.62307919170911
H           28.53702010309792        1.37564410472796        5.17331156503116
H           32.46269502704660        0.04253898132170        4.49676267111505
H           34.17446449730430        0.16979427579934        2.54038428135454
H           29.62805303205613       -1.79219650567554       -5.24198635542534
H           29.55978505314655       -1.63332543975116       -7.69031479824141
H           29.23219312580254        1.91248065077845      -10.76894956244572
H           29.25732196455693        2.65679442491022       -7.38895567549205
H           29.32762208910844        2.48068407460548       -4.94190327907507
C           23.83823554058641       -0.00282079863454       -0.01829922452365
C           25.05420022782514       -0.00491214084520        0.01785189654599
126
 energy: -239.851477703108 gnorm: 0.121847391987 xtb: 6.5.1 (b24c23e)
Ni          19.29042870469262       -0.03261229979690        0.00728194256936
C           15.92325044359067       -0.09440998467734        0.06292331062765