124
 energy: -211.873677283607 gnorm: 3.361727492549 xtb: 6.5.1 (b24c23e)
Ni          15.59375300000000       -0.02534200000000        0.01469500000000
C           12.25215900000000        0.11794500000000        0.00519300000000
C           12.91442700000000        1.15701900000000       -0.51159700000000
C           12.26387900000000        2.30487500000000       -1.13178200000000
C           13.20409400000000        3.15336000000000       -1.50422600000000
C           14.50901700000000        2.59249600000000       -1.12735900000000
N           14.33186400000000        1.31899100000000       -0.50559600000000
C           15.70113900000000        3.19461100000000       -1.31999700000000
C           15.75086300000000        4.54014300000000       -1.93671700000000
C           16.30780300000000        4.70812200000000       -3.21340000000000
C           16.37106100000000        5.97912700000000       -3.79205600000000
C           15.88205300000000        7.09566600000000       -3.09912700000000
N           15.94696300000000        8.39548200000000       -3.69163500000000
C           15.33100400000000        6.92976000000000       -1.82057300000000
C           15.26808900000000        5.65940900000000       -1.24055800000000
C           16.99232700000000        2.56948200000000       -0.92992900000000
C           18.27578300000000        3.28212300000000       -0.92375800000000
C           19.21029600000000        2.42675300000000       -0.56187200000000
N           17.13499000000000        1.32759200000000       -0.58101100000000
C           18.53018200000000        1.15836100000000       -0.33034300000000
C           19.12438000000000        0.00022600000000        0.00006400000000
C           18.36079700000000       -1.24578500000000        0.23286900000000
C           18.89131799999999       -2.46197000000000        0.21301700000000
C           17.84842200000000       -3.39357000000000        0.59676200000000
C           16.75078900000000       -2.68349100000000        0.83053000000000
N           16.98463500000000       -1.29164900000000        0.61010500000000
C           15.47217500000000       -3.25451400000000        1.32604000000000
C           15.49499500000000       -4.59250100000000        1.96595100000000
C           16.23394700000000       -4.79646700000000        3.14148000000000
C           16.27492300000000       -6.06012100000000        3.73794100000000
C           15.58274000000000       -7.13519100000000        3.16300100000000
N           15.62513800000000       -8.42754700000000        3.77360800000000
C           14.85128000000000       -6.93563100000000        1.98379400000000
C           14.81022800000000       -5.67267900000000        1.38598300000000
C           14.31011800000000       -2.58340500000000        1.20995100000000
C           13.00278600000000       -3.02603900000000        1.69189600000000
C           12.14112400000000       -2.09945400000000        1.31918900000000
C           12.88958100000000       -1.06062500000000        0.61354400000000
N           14.15444200000000       -1.33208400000000        0.54375900000000
H           11.16879600000000        0.13590900000000       -0.01826600000000
H           11.20056800000000        2.44841700000000       -1.27503100000000
H           13.01629400000000        4.09522900000000       -2.00281900000000
H           16.69086400000000        3.85450300000000       -3.75919300000000
H           16.80140900000000        6.09405000000000       -4.77891700000000
H           16.35629200000000        8.52942800000000       -4.64314700000000
H           15.58597200000000        9.23338600000000       -3.18322800000000
H           14.95281000000000        7.78419500000000       -1.27357500000000
H           14.84541200000000        5.54644600000000       -0.24969000000000
H           18.44670100000000        4.32252200000000       -1.16720800000000
H           20.26407100000000        2.65200100000000       -0.46573200000000
H           19.91699900000000       -2.71721800000000       -0.01739100000000
H           17.95716900000000       -4.46554600000000        0.69892800000000
H           16.77492900000000       -3.97570500000000        3.59647000000000
H           16.84630300000000       -6.20167100000000        4.64668200000000
H           16.16812800000000       -8.58645600000000        4.65154500000000
H           15.11363800000000       -9.23488000000000        3.35235900000000
H           14.31621600000000       -7.75862200000000        1.52695400000000
H           14.24879100000000       -5.53611000000000        0.46981700000000
H           12.76094900000000       -3.92409000000000        2.24486100000000
H           11.07657100000000       -2.11569900000000        1.51258000000000
Ni          28.61262100000000        0.02654800000000       -0.01316300000000
C           31.95421400000000       -0.06054100000000        0.10101700000000
C           31.29194600000000       -1.06539900000000        0.68154000000000
C           31.94249400000000       -2.21654100000000        1.29560400000000
C           31.00227900000000       -2.99578200000000        1.79702800000000
C           29.69735600000000       -2.37177300000000        1.53777900000000
N           29.87451000000000       -1.14989100000000        0.81985800000000
C           28.50523400000000       -2.86501900000000        1.93320100000000
C           28.45551100000000       -4.12249500000000        2.71394300000000
C           27.89857000000000       -5.27941700000000        2.14855200000000
C           27.83531200000000       -6.46398800000000        2.88820600000000
C           28.32432000000000       -6.50335100000000        4.20169800000000
N           28.25941000000000       -7.71538700000000        4.95771300000000
C           28.87536900000000       -5.34601500000000        4.76985100000000
C           28.93828400000000       -4.16067300000000        4.03149200000000
C           27.21404600000000       -2.19450000000000        1.62768300000000
C           25.93059000000000       -2.58310900000000        2.22507500000000
C           24.99607700000000       -1.80886400000000        1.71207900000000
N           27.07138399999999       -1.21750200000000        0.78535900000000
C           25.67619100000000       -0.91506600000000        0.78280600000000
C           25.08199300000000        0.00022600000000        0.00006400000000
C           25.84557600000000        0.88272200000000       -0.90985000000000
C           25.31505500000000        1.53814900000000       -1.93450400000000
C           26.35795100000000        2.37273200000000       -2.49895900000000
C           27.45558500000000        2.17524000000000       -1.77794800000000
N           27.22173800000000        1.22248700000000       -0.73964500000000
C           28.73419800000000        2.90375100000000       -1.98011100000000
C           28.71137800000000        4.17638600000000       -2.74175100000000
C           27.97242600000000        5.26888000000000       -2.26224400000000
C           27.93145000000000        6.46423000000000       -2.98593400000000
C           28.62363300000000        6.57902400000000       -4.19967000000000
N           28.58123500000000        7.80202300000000       -4.93946600000000
C           29.35509300000000        5.48589800000000       -4.68488000000000
C           29.39614500000000        4.28981100000000       -3.96252200000000
C           29.89625500000000        2.43618500000000       -1.48488700000000
C           31.20358700000000        3.08245100000000       -1.58753300000000
C           32.06524900000000        2.25983900000000       -1.02116000000000
C           31.31679200000000        1.09770700000000       -0.54518700000000
N           30.05193200000000        1.18953000000000       -0.81000500000000
H           33.03757700000000       -0.09002000000000        0.10302700000000
H           33.00580500000000       -2.41524900000000        1.33609700000000
H           31.19007900000000       -3.93176400000000        2.30658500000000
H           27.51550900000000       -5.26268700000000        1.13550000000000
H           27.40496400000000       -7.35003000000000        2.43872800000000
H           27.85008100000000       -8.58247600000000        4.54362100000000
H           28.62040100000000       -7.75459500000000        5.93701000000000
H           29.25356300000000       -5.36219200000000        5.78424900000000
H           29.36096100000000       -3.27237400000000        4.48481900000000
H           25.75967199999999       -3.36087100000000        2.95773000000000
H           23.94230200000000       -1.85318700000000        1.95294300000000
H           24.28937400000000        1.48713600000000       -2.27455800000000
H           26.24920400000000        3.05018200000000       -3.33599600000000
H           27.43144400000000        5.19462100000000       -1.32674900000000
H           27.36007000000000        7.29987200000000       -2.60181300000000
H           28.03824600000000        8.62158100000000       -4.58683300000000
H           29.09273500000000        7.89698600000000       -5.84512600000000
H           29.89015700000000        5.55984800000000       -5.62325600000000
H           29.95758200000000        3.45073300000000       -4.35489700000000
H           31.44542400000000        4.03954100000000       -2.03052700000000
H           33.12980200000000        2.43000500000000       -0.92784500000000
C           21.36769500000000        0.01239700000000        0.00243100000000
C           20.11542500000000       -0.00678400000000       -0.00191800000000
C           22.68136300000000        0.01163100000000        0.00436300000000
C           24.18449700000000       -0.00678400000000       -0.00191800000000
124
 energy: -212.754559782340 gnorm: 0.546924159351 xtb: 6.5.1 (b24c23e)
Ni          15.59690701255939       -0.02405566192222        0.01433469338246
C           12.25251881390740        0.11006333310753        0.00940052489321
C           12.91932967594061        1.15899755037036       -0.51264635451194
C           12.26280379344241        2.30173075601014       -1.13031953839309
C           13.20875808186723        3.15471352756921       -1.50457683351003
C           14.50686312327091        2.58814179645099       -1.12585788876002
N           14.32521929262313        1.32339946038619       -0.50795952390526
C           15.70895038542177        3.19366743857496       -1.31891331322061
C           15.75192033037388        4.54100824514024       -1.93665794782490
C           16.30750596073657        4.71078134995832       -3.21264630946922
C           16.37051089858725        5.97909785315434       -3.79097976682311
C           15.88229719544083        7.10058231479125       -3.10137071747912
N           15.94688602121497        8.39402832419863       -3.69097159119967
C           15.33141110288440        6.92887087827750       -1.82129417019369
C           15.26853348330189        5.66040927842340       -1.24308368215715
C           16.98746762277040        2.58054007007898       -0.93410437174545
C           18.26758399072039        3.28687379084272       -0.92670975395115
C           19.20984002332143        2.42001457682481       -0.55976242372314
N           17.13496063658991        1.32517966016129       -0.57706794947252
C           18.50409410081723        1.17503715165470       -0.33541743754816
C           19.01780945155117       -0.00644061639202        0.00020174562300
C           18.33844781896870       -1.24634028605025        0.23575493765880
C           18.89101455065386       -2.47200525265080        0.21446528002612
C           17.85851905323923       -3.39548538997537        0.59522939387689
C           16.74257489622549       -2.67766827255375        0.83320292739122
N           16.98222505245470       -1.29544198498497        0.60777780008108
C           15.47809161123046       -3.25242627256564        1.32452869686471
C           15.49645946883428       -4.59258886998599        1.96516174816243
C           16.23342815495939       -4.79901158599595        3.14081988766515
C           16.27418756459556       -6.05988604416510        3.73694630558610
C           15.58290026473812       -7.14019716275418        3.16536696958908
N           15.62507720727611       -8.42599930913656        3.77287779923643
C           14.85186453988051       -6.93465085755082        1.98434370198714
C           14.81091155717674       -5.67349412342174        1.38841266445329
C           14.30885643910964       -2.58222272439361        1.20966369967463
C           13.00729622084848       -3.02714231101487        1.69172798442590
C           12.13744293392856       -2.09440069303269        1.31663045441954
C           12.88035639652500       -1.05557245510219        0.61133833240127
N           14.15894590492717       -1.33397768401257        0.54583149433743
H           11.16892904298222        0.13510350128178       -0.01757605369901
H           11.20061085806045        2.44675842920244       -1.27420660444964
H           13.01851131941150        4.09539204723329       -2.00271741202145
H           16.69064502792252        3.85478285415258       -3.75883108508017
H           16.80133919537887        6.09416299260599       -4.77890115457327
H           16.35346930139751        8.52797541342153       -4.63639543430137
H           15.58841735554696        9.22712277168375       -3.18645865835210
H           14.95289282172759        7.78425293005306       -1.27366258419819
H           14.84566396605644        5.54633570045569       -0.25011471521754
H           18.44491121132177        4.32309481978789       -1.16776349666057
H           20.26363031488287        2.64927652960115       -0.46504151284276
H           19.91683209961785       -2.71752176603853       -0.01746921122963
H           17.95811010854947       -4.46547344693135        0.69863716655180
H           16.77464865038187       -3.97596629981636        3.59615501513561
H           16.84620513431176       -6.20174639304059        4.64666690852554
H           16.16440544389132       -8.58482892627041        4.64528435045806
H           15.11712279905900       -9.22882622903134        3.35497955174946
H           14.31632014031821       -7.75865315171404        1.52701019923290
H           14.24911203256538       -5.53601225285925        0.47017370181766
H           12.76305445763893       -3.92409282761732        2.24452928090005
H           11.07612814575437       -2.11424647670447        1.51186940676167
Ni          28.60972574701629        0.02546128269258       -0.01224510316151
C           31.95389891644851       -0.05255790947263        0.09669476203470
C           31.28692751846141       -1.06740970246398        0.68259909203601
C           31.94354496837000       -2.21356294721440        1.29378771798626
C           30.99757379087939       -2.99684188731034        1.79793951107899
C           29.69938240348585       -2.36835503281292        1.53512525079481
N           29.88127863348028       -1.15408095994622        0.82222940910910
C           28.49775898952923       -2.86362745122751        1.93308368120594
C           28.45445471038817       -4.12291471993260        2.71469147848155
C           27.89886295720896       -5.28025705775635        2.15118572463229
C           27.83586378843039       -6.46307341277677        2.88877349511110
C           28.32407581647443       -6.50793645403881        4.20455670924354
N           28.25948769110372       -7.71403112526226        4.95686760494085
C           28.87496241176759       -5.34612492189376        4.76870974574636
C           28.93783773396795       -4.16332958537581        4.03092916377454
C           27.21849527887173       -2.20461004188403        1.63510343356034
C           25.93943874415425       -2.58842207105326        2.22741486623071
C           24.99663626741964       -1.80268553745159        1.70688622495571
N           27.07222043559966       -1.21362795219697        0.78541737221523
C           25.70857706775306       -0.93114049049960        0.79671596876408
C           25.23387650236539        0.00586396649811       -0.00492189382216
C           25.87402645326249        0.88761780898073       -0.91146428339005
C           25.31528180144043        1.54461701492607       -1.94172050598653
C           26.34812854177986        2.37256604651313       -2.50138511489366
C           27.46350787948200        2.17434929218494       -1.77181696079394
N           27.22497944972892        1.22325122383998       -0.74410181085060
C           28.72863485305495        2.90139851131944       -1.97918109548050
C           28.70990238106235        4.17578418754043       -2.74225955097307
C           27.97294168601058        5.26974463281181       -2.26473140129180
C           27.93218194225824        6.46327311495666       -2.98628641969852
C           28.62347465354215        6.58377078480678       -4.20254122887345
N           28.58129378806698        7.80055146437207       -4.93857607608508
C           29.35451121334271        5.48581417958756       -4.68375775842385
C           29.39545660104601        4.29228618291229       -3.96186421572270
C           29.89734979949910        2.43536334588127       -1.48414175172451
C           31.19917204698279        3.08292704217161       -1.58853093687642
C           32.06890339635429        2.25499678386774       -1.01840138221685
C           31.32602546334589        1.09294472957302       -0.54212564551382
N           30.04742935746055        1.19217390236573       -0.81045666202932
H           33.03744723833839       -0.08898330401725        0.10274295220643
H           33.00575731408194       -2.41363983627871        1.33516691495590
H           31.18786303108450       -3.93176970282117        2.30677793140525
H           27.51572626877031       -5.26254076818290        1.13593289964195
H           27.40503437527665       -7.35007954790331        2.43883047805980
H           27.85290301264121       -8.57604590752471        4.54614087953201
H           28.61795511954026       -7.75382706519224        5.93000475319473
H           29.25348055448461       -5.36229707774672        5.78424867753639
H           29.36070921543717       -3.27266698161145        4.48449171379925
H           25.76146683013927       -3.36160873849069        2.95790383372756
H           23.94272154489570       -1.85087006723051        1.95085181134538
H           24.28946761445646        1.48707374740505       -2.27466253256886
H           26.24823296024264        3.04985796399842       -3.33607756390776
H           27.43172339535046        5.19450665379318       -1.32713879195270
H           27.36016797867454        7.29990168827557       -2.60188344736397
H           28.04196914501760        8.61546393036101       -4.58893566963166
H           29.08925071195754        7.89582505974193       -5.83863163181321
H           29.89005337279524        5.55991175375525       -5.62324904629430
H           29.95726096097591        3.45097636710097       -4.35461714138538
H           31.44332572024269        4.03927142266740       -2.03071136518662
H           33.13023927664014        2.42861749415383       -0.92703020527723
C           21.40999354108553        0.01136742232572        0.00295585970163
C           20.22403939780271       -0.01382304126454        0.00178554668513
C           22.67721698417914        0.01280723903527        0.00407133893300
C           23.97754969530088       -0.00102195935118       -0.00638373579119
124
 energy: -212.864588686215 gnorm: 0.292194789470 xtb: 6.5.1 (b24c23e)
Ni          15.60184427359669       -0.01257847199129        0.01313757924178
C           12.25362163947159        0.09471689496520        0.01779600670326
C           12.92508076564116        1.15587769469063       -0.51272775876039
C           12.26633704232660        2.29280612184442       -1.12651974410890
C           13.22160900998275        3.15299869989932       -1.50352078382234
C           14.50734039144468        2.58081682704201       -1.12466699760799
N           14.30940628855031        1.33416158800093       -0.51276111600727
C           15.71885409931148        3.19726566447176       -1.31803266242860
C           15.75774488088998        4.54686365794201       -1.93604681031536
C           16.30883579117610        4.72138619738582       -3.20966582388747
C           16.36875692721737        5.98399197281744       -3.78937628777989
C           15.88255707880761        7.10886740989062       -3.10519368063869
N           15.94625787484034        8.38212762027814       -3.68552668474821
C           15.33238990672115        6.93046558643844       -1.82638553922194
C           15.26917321099069        5.66526457133927       -1.25226653332065
C           16.96721451795234        2.60724459512698       -0.94542719754172
C           18.24450352198976        3.29943534108002       -0.93777972358494
C           19.18693386892707        2.41399435963186       -0.55964353771898
N           17.11265561031973        1.33987985618719       -0.56668721112836
C           18.46418679793873        1.18677217478453       -0.33568032914273
C           18.97334372603772       -0.02778482600092        0.00184210359083
C           18.29700631329746       -1.25024427170121        0.24177876564497
C           18.88132492894999       -2.49567366617741        0.22627660897594
C           17.87644563060795       -3.40110540420671        0.60108153748355
C           16.72971437715183       -2.67339220370257        0.84086796814015
N           16.95508329137011       -1.31199675432237        0.58992990981190
C           15.49261703535784       -3.24561816506879        1.32213952757760
C           15.50801450024402       -4.59299738640807        1.95818973609863
C           16.23498770810855       -4.80783457595564        3.13589783205676
C           16.27132130231612       -6.06286765666684        3.73492797385967
C           15.58306417706772       -7.14750340100680        3.16896008428626
N           15.62459266298747       -8.41333537250497        3.76688868430093
C           14.85376957204418       -6.93358321166972        1.98877317227808
C           14.81392686299748       -5.67447298567129        1.39679604212584
C           14.31153327297433       -2.57387744211160        1.20860403686940
C           13.01700278397379       -3.01945580594211        1.68547926111051
C           12.12982190735217       -2.08174984036089        1.30724904693328
C           12.86404604238901       -1.04658957976127        0.60610293706551
N           14.16441133850708       -1.32948546220161        0.55610205948088
H           11.17012593330817        0.12725959381641       -0.01048101540102
H           11.20319809779310        2.43321603003971       -1.26728114921869
H           13.03782305258405        4.09517361670081       -2.00098551890348
H           16.68849595736636        3.86125014511645       -3.75533551287514
H           16.80007195774177        6.09618724367151       -4.77826531220884
H           16.34378245475714        8.51676571956009       -4.61100569656032
H           15.59621654374504        9.19992624207661       -3.19427511716238
H           14.95390692342549        7.78489783621588       -1.27568348004009
H           14.84849047916838        5.54772785195917       -0.25687699996548
H           18.42960253549193        4.33273230209543       -1.17409371100392
H           20.24692686154544        2.62830079055674       -0.46094148159696
H           19.91003250059583       -2.72287112626720       -0.01574648422225
H           17.96782815298725       -4.46962758506404        0.69719565130347
H           16.77226531502462       -3.98152916516306        3.59333986713034
H           16.84415591857331       -6.20272411761756        4.64570721965163
H           16.15179707011113       -8.57271888950183        4.62113556098131
H           15.12856879546572       -9.20192147216539        3.36053479809341
H           14.31793125525048       -7.75752858634458        1.52862880053479
H           14.25308850003112       -5.53639170834098        0.47610790756463
H           12.78113996973388       -3.91946368136133        2.23906032977552
H           11.07055259945263       -2.10242217973280        1.50548972730378
Ni          28.60239120138705        0.01821242951987       -0.00324101237433
C           31.95267767589432       -0.03713262908416        0.08856300692670
C           31.28097105301291       -1.06563381885219        0.67990376877099
C           31.93978043919980       -2.20539808008117        1.28839543286471
C           30.98436890799373       -2.99483440116011        1.79703893327233
C           29.69842261094911       -2.36284858781321        1.52933666548540
N           29.89660858622250       -1.16373328963487        0.82819899939505
C           28.48645704983698       -2.86400494555892        1.93573955493024
C           28.44835379576195       -4.12520652934584        2.71963026492973
C           27.89752003295149       -5.28350347397302        2.16160769081575
C           27.83763623800850       -6.46435763295092        2.89370384100958
C           28.32381713062722       -6.51566255874218        4.20931441984056
N           28.26012216819101       -7.70289206249667        4.94992900076491
C           28.87397070566117       -5.35116593762910        4.76711176253479
C           28.93713308149204       -4.17353611139099        4.02970264154233
C           27.23631020863242       -2.22697023158353        1.64994253360926
C           25.96073600032274       -2.60450265017932        2.23185364595833
C           25.01459566668971       -1.80242638459116        1.70449515504214
N           27.08432443819566       -1.20930634848391        0.80434252978836
C           25.72591928448345       -0.93660602164040        0.80463754011755
C           25.22604369279994        0.02163656130941       -0.02070535537430
C           25.89769161802539        0.89659211191694       -0.90696168774135
C           25.32107895199258        1.56871017380616       -1.95728866777758
C           26.32912149597349        2.38022913323971       -2.50271966912624
C           27.47506510837183        2.17742515354847       -1.76291479308255
N           27.24468103405072        1.21550593387159       -0.76766935819905
C           28.71318863257442        2.89514467089353       -1.97444107740152
C           28.69818780248432        4.16994055087357       -2.74634031117184
C           27.97138154506596        5.27044239525949       -2.27478405706751
C           27.93506070595135        6.46318766255402       -2.98988507173941
C           28.62330614150666        6.59076801572558       -4.20664103986487
N           28.58178343320063        7.78854662843390       -4.93133161988402
C           29.35258362706057        5.48885824448571       -4.68038129047087
C           29.39238485498213        4.29972681630239       -3.95796036894827
C           29.89440418926746        2.42958427681223       -1.47756306922941
C           31.18919587424917        3.07334065234482       -1.58557562974290
C           32.07638459456258        2.24005810628892       -1.01303117718185
C           31.34213321006196        1.08356626079413       -0.53753126934995
N           30.04159655193480        1.19806585330129       -0.80080582372124
H           33.03618080644824       -0.07878009551924        0.10012956557236
H           33.00298231195971       -2.40037702801108        1.32768769512694
H           31.16835488518124       -3.93008974907221        2.30747972361357
H           27.51784959171336       -5.26320440100611        1.14321042855889
H           27.40631984993836       -7.35061785915643        2.44085480681395
H           27.86259451674909       -8.54867691620052        4.55081005090528
H           28.61015963863580       -7.74530682123140        5.90299516579985
H           29.25246168544479       -5.36429252675059        5.78358295406816
H           29.35786620077491       -3.27903855290488        4.48185272208544
H           25.77728578127928       -3.37256272443963        2.96257085211800
H           23.95651738807540       -1.83882059446384        1.93862886908398
H           24.29408712191916        1.49325271605539       -2.28131148955793
H           26.23893052154880        3.05084574986204       -3.34035693380445
H           27.43409537350047        5.19523026704335       -1.33332240601570
H           27.36223111180026        7.29961180468193       -2.60323513203722
H           28.05458002176006        8.58863078383370       -4.59219113579734
H           29.07780140427542        7.88557810120711       -5.81314226197974
H           29.88842867953984        5.56060503237263       -5.62139184494457
H           29.95326442521421        3.45610168826804       -4.35163793362375
H           31.42509349983558        4.03206162448666       -2.02987233845505
H           33.13570771686160        2.41670807846195       -0.92071639387003
C           21.46714313968200        0.00280614402126        0.00513972447243
C           20.24690455166691       -0.03616843007120        0.01584156081602
C           22.77498366197746        0.01856802140591       -0.00159762975804
C           23.93882196860466        0.01667954040214       -0.02419349239221
124
 energy: -212.923608318290 gnorm: 0.129064694116 xtb: 6.5.1 (b24c23e)
Ni          15.60402381015759        0.00145694762632        0.01640709703988
C           12.25563742028060        0.07952748735343        0.02704105406091
C           12.93120191569095        1.15423062503352       -0.51433793609158
C           12.27037656954968        2.28247555128266       -1.12279040601492
C           13.23447283440446        3.14978695825859       -1.50258124149299
C           14.50364521642012        2.57347217907267       -1.12397602834368
N           14.29177461200710        1.34620947811759       -0.52051023615780
C           15.72422426570946        3.20471066547068       -1.31772525936944