      -----------------------------------------------------------      
     |                   =====================                   |     
     |                           x T B                           |     
     |                   =====================                   |     
     |                         S. Grimme                         |     
     |          Mulliken Center for Theoretical Chemistry        |     
     |                    University of Bonn                     |     
      -----------------------------------------------------------      

   * xtb version 6.5.1 (b24c23e) compiled by 'conda@728c89f4b128' on 2022-07-12

   xtb is free software: you can redistribute it and/or modify it under
   the terms of the GNU Lesser General Public License as published by
   the Free Software Foundation, either version 3 of the License, or
   (at your option) any later version.
   
   xtb is distributed in the hope that it will be useful,
   but WITHOUT ANY WARRANTY; without even the implied warranty of
   MERCHANTABILITY or FITNESS FOR A PARTICULAR PURPOSE.  See the
   GNU Lesser General Public License for more details.
   
   Cite this work as:
   * C. Bannwarth, E. Caldeweyher, S. Ehlert, A. Hansen, P. Pracht,
     J. Seibert, S. Spicher, S. Grimme, WIREs Comput. Mol. Sci., 2020, 11,
     e01493. DOI: 10.1002/wcms.1493
   
   for GFN2-xTB:
   * C. Bannwarth, S. Ehlert and S. Grimme., J. Chem. Theory Comput., 2019,
     15, 1652-1671. DOI: 10.1021/acs.jctc.8b01176
   for GFN1-xTB:
   * S. Grimme, C. Bannwarth, P. Shushkov, J. Chem. Theory Comput., 2017,
     13, 1989-2009. DOI: 10.1021/acs.jctc.7b00118
   for GFN0-xTB:
   * P. Pracht, E. Caldeweyher, S. Ehlert, S. Grimme, ChemRxiv, 2019, preprint.
     DOI: 10.26434/chemrxiv.8326202.v1
   for GFN-FF:
   * S. Spicher and S. Grimme, Angew. Chem. Int. Ed., 2020, 59, 15665-15673.
     DOI: 10.1002/anie.202004239
   
   for ALPB and GBSA implicit solvation:
   * S. Ehlert, M. Stahn, S. Spicher, S. Grimme, J. Chem. Theory Comput.,
     2021, 17, 4250-4261. DOI: 10.1021/acs.jctc.1c00471
   
   for DFT-D4:
   * E. Caldeweyher, C. Bannwarth and S. Grimme, J. Chem. Phys., 2017,
     147, 034112. DOI: 10.1063/1.4993215
   * E. Caldeweyher, S. Ehlert, A. Hansen, H. Neugebauer, S. Spicher,
     C. Bannwarth and S. Grimme, J. Chem. Phys., 2019, 150, 154122.
     DOI: 10.1063/1.5090222
   * E. Caldeweyher, J.-M. Mewes, S. Ehlert and S. Grimme, Phys. Chem. Chem. Phys.
     2020, 22, 8499-8512. DOI: 10.1039/D0CP00502A
   
   for sTDA-xTB:
   * S. Grimme and C. Bannwarth, J. Chem. Phys., 2016, 145, 054103.
     DOI: 10.1063/1.4959605
   
   in the mass-spec context:
   * V. Asgeirsson, C. Bauer and S. Grimme, Chem. Sci., 2017, 8, 4879.
     DOI: 10.1039/c7sc00601b
   * J. Koopman and S. Grimme, ACS Omega 2019, 4, 12, 15120-15133.
     DOI: 10.1021/acsomega.9b02011
   
   for metadynamics refer to:
   * S. Grimme, J. Chem. Theory Comput., 2019, 155, 2847-2862
     DOI: 10.1021/acs.jctc.9b00143
   
   for SPH calculations refer to:
   * S. Spicher and S. Grimme, J. Chem. Theory Comput., 2021, 17, 1701-1714
     DOI: 10.1021/acs.jctc.0c01306
   
   with help from (in alphabetical order)
   P. Atkinson, C. Bannwarth, F. Bohle, G. Brandenburg, E. Caldeweyher
   M. Checinski, S. Dohm, S. Ehlert, S. Ehrlich, I. Gerasimov, C. Hölzer
   A. Katbashev, J. Koopman, C. Lavigne, S. Lehtola, F. März, M. Müller,
   F. Musil, H. Neugebauer, J. Pisarek, C. Plett, P. Pracht, F. Pultar,
   J. Seibert, P. Shushkov, S. Spicher, M. Stahn, M. Steiner, T. Strunk,
   J. Stückrath, T. Rose, and J. Unsleber
   
 * started run on 2022/07/29 at 19:51:16.627     

           -------------------------------------------------
          |                Calculation Setup                |
           -------------------------------------------------

          program call               : xtb Fe_DHP_C6_2.xyz --gfn 1 --opt -T 48
          hostname                   : cx3-14-19.cx3.hpc.ic.ac.uk
          coordinate file            : Fe_DHP_C6_2.xyz
          omp threads                :                     1

   ID    Z sym.   atoms
    1   26 Fe     1, 59
    2    6 C      2-6, 8-11, 13-17, 19-24, 26-29, 31-36, 60-64, 66-69, 71-75,
                  77-82, 84-87, 89-94, 117-122
    3    7 N      7, 12, 18, 25, 30, 37, 65, 70, 76, 83, 88, 95
    4    1 H      38-58, 96-116
########################################################################
[WARNING] Please study the warnings concerning your input carefully
-1- prog_main_parseArguments: Unknown option '-T' provided
########################################################################

           -------------------------------------------------
          |                 G F N 1 - x T B                 |
           -------------------------------------------------

        Reference                      10.1021/acs.jctc.7b00118
      * Hamiltonian:
        H0-scaling (s, p, d)           1.850000    2.250000    2.000000
        zeta-weighting                 0.000000
      * Dispersion:
        s8                             2.400000
        a1                             0.630000
        a2                             5.000000
        s9                             0.000000
      * Repulsion:
        kExp                           1.500000
        rExp                           1.000000
      * Coulomb:
        alpha                          2.000000
        third order                    atomic
        anisotropic                    false
      * Halogen bond correction:
        rad-scale                      1.300000
        damping                        0.440000


          ...................................................
          :                      SETUP                      :
          :.................................................:
          :  # basis functions                 416          :
          :  # atomic orbitals                 414          :
          :  # shells                          246          :
          :  # electrons                       382          :
          :  # halogen bonds                     0          :
          :  max. iterations                   250          :
          :  Hamiltonian                  GFN1-xTB          :
          :  restarted?                      false          :
          :  GBSA solvation                  false          :
          :  PC potential                    false          :
          :  electronic temp.          300.0000000     K    :
          :  accuracy                    1.0000000          :
          :  -> integral cutoff          0.2500000E+02      :
          :  -> integral neglect         0.1000000E-07      :
          :  -> SCF convergence          0.1000000E-05 Eh   :
          :  -> wf. convergence          0.2000000E-04 e    :
          :  Broyden damping             0.4000000          :
          ...................................................

 iter      E             dE          RMSdq      gap      omega  full diag
   1   -186.2301966 -0.186230E+03  0.120E+01    0.00       0.0  T
   2    -88.5108129  0.977194E+02  0.141E+01    0.02       1.0  T
   3   -174.4375137 -0.859267E+02  0.889E+00    0.05       1.0  T
   4   -174.4745339 -0.370201E-01  0.857E+00    0.08       1.0  T
   5    156.8316577  0.331306E+03  0.128E+01    0.06       1.0  T
   6    -45.5204303 -0.202352E+03  0.105E+01    0.10       1.0  T
   7   -183.3583430 -0.137838E+03  0.665E+00    0.19       1.0  T
   8   -198.1343587 -0.147760E+02  0.536E+00    0.05       1.0  T
   9   -196.1808572  0.195350E+01  0.527E+00    0.12       1.0  T
  10   -196.2225940 -0.417368E-01  0.527E+00    0.11       1.0  T
  11   -196.6787566 -0.456163E+00  0.525E+00    0.05       1.0  T
  12   -195.9109481  0.767808E+00  0.538E+00    0.14       1.0  T
  13   -198.2460529 -0.233510E+01  0.491E+00    0.05       1.0  T
  14   -198.4402157 -0.194163E+00  0.422E+00    0.00       1.0  T
  15   -199.6201772 -0.117996E+01  0.414E+00    0.02       1.0  T
  16   -176.9503680  0.226698E+02  0.658E+00    0.15       1.0  T
  17   -175.2428929  0.170748E+01  0.722E+00    0.04       1.0  T
  18   -178.9248788 -0.368199E+01  0.644E+00    0.17       1.0  T
  19   -180.2075306 -0.128265E+01  0.628E+00    0.15       1.0  T
  20   -180.5991443 -0.391614E+00  0.634E+00    0.25       1.0  T
  21   -188.2851813 -0.768604E+01  0.548E+00    0.04       1.0  T
  22   -197.8029755 -0.951779E+01  0.413E+00    0.06       1.0  T
  23   -197.7576391  0.453364E-01  0.411E+00    0.07       1.0  T
  24   -204.9649668 -0.720733E+01  0.256E+00    0.01       1.0  T
  25   -206.2897004 -0.132473E+01  0.216E+00    0.01       1.0  T
  26   -207.4395404 -0.114984E+01  0.186E+00    0.04       1.0  T
  27   -191.2308982  0.162086E+02  0.532E+00    0.06       1.0  T
  28   -191.5822231 -0.351325E+00  0.519E+00    0.04       1.0  T
  29   -194.6999754 -0.311775E+01  0.475E+00    0.08       1.0  T
  30   -198.3232978 -0.362332E+01  0.412E+00    0.06       1.0  T
  31   -206.4530898 -0.812979E+01  0.232E+00    0.05       1.0  T
  32   -206.1730364  0.280053E+00  0.245E+00    0.06       1.0  T
  33   -206.2152176 -0.421813E-01  0.248E+00    0.10       1.0  T
  34   -206.3647979 -0.149580E+00  0.241E+00    0.10       1.0  T
  35   -206.4192928 -0.544949E-01  0.215E+00    0.15       1.0  T
  36   -206.4250214 -0.572859E-02  0.215E+00    0.15       1.0  T
  37   -207.0984016 -0.673380E+00  0.206E+00    0.04       1.0  T
  38   -207.2371620 -0.138760E+00  0.204E+00    0.02       1.0  T
  39   -207.3995320 -0.162370E+00  0.198E+00    0.01       1.0  T
  40   -207.5820805 -0.182548E+00  0.190E+00    0.01       1.0  T
  41   -208.2267426 -0.644662E+00  0.154E+00    0.02       1.0  T
  42   -208.1975376  0.292050E-01  0.154E+00    0.04       1.0  T
  43   -208.5088384 -0.311301E+00  0.127E+00    0.03       1.0  T
  44   -208.4111464  0.976920E-01  0.125E+00    0.07       1.0  T
  45   -208.7346259 -0.323479E+00  0.103E+00    0.04       1.0  T
  46   -208.5005093  0.234117E+00  0.110E+00    0.07       1.0  T
  47   -208.3106573  0.189852E+00  0.129E+00    0.08       1.0  T
  48   -207.4354867  0.875171E+00  0.169E+00    0.13       1.0  T
  49   -209.3138252 -0.187834E+01  0.187E-01    0.01       1.0  T
  50   -208.5057630  0.808062E+00  0.112E+00    0.07       1.0  T
  51   -209.1381320 -0.632369E+00  0.534E-01    0.03       1.0  T
  52   -209.2151138 -0.769818E-01  0.415E-01    0.02       1.0  T
  53   -209.2335541 -0.184403E-01  0.421E-01    0.01       1.0  T
  54   -209.2623212 -0.287671E-01  0.347E-01    0.01       1.0  T
  55   -209.3033313 -0.410101E-01  0.204E-01    0.01       1.0  T
  56   -209.3099630 -0.663174E-02  0.189E-01    0.01       1.0  T
  57   -209.3021753  0.778776E-02  0.217E-01    0.01       1.0  T
  58   -209.1577189  0.144456E+00  0.504E-01    0.03       1.0  T
  59   -209.3082107 -0.150492E+00  0.164E-01    0.01       1.0  T
  60   -209.3262709 -0.180602E-01  0.404E-02    0.01       1.0  T
  61   -209.3216625  0.460839E-02  0.859E-02    0.01       1.0  T
  62   -209.3258206 -0.415816E-02  0.406E-02    0.01       1.0  T
  63   -209.3263311 -0.510498E-03  0.311E-02    0.01       1.0  T
  64   -209.3246556  0.167558E-02  0.626E-02    0.01       1.0  T
  65   -209.3263938 -0.173819E-02  0.330E-02    0.01       1.0  T
  66   -209.3262164  0.177320E-03  0.373E-02    0.01       1.0  T
  67   -209.3264245 -0.208053E-03  0.319E-02    0.01       1.0  T
  68   -209.3267360 -0.311481E-03  0.215E-02    0.01       1.0  T
  69   -209.3268048 -0.688548E-04  0.182E-02    0.01       1.0  T
  70   -209.3268267 -0.218531E-04  0.170E-02    0.01       1.0  T
  71   -209.3268574 -0.307594E-04  0.150E-02    0.01       1.0  T
  72   -209.3269110 -0.535428E-04  0.107E-02    0.01       1.0  T
  73   -209.3269224 -0.114593E-04  0.868E-03    0.01       1.0  T
  74   -209.3269533 -0.309019E-04  0.502E-03    0.01       1.8  T
  75   -209.3269579 -0.451714E-05  0.407E-03    0.01       2.2  T
  76   -209.3269598 -0.194540E-05  0.344E-03    0.01       2.6  T
  77   -209.3269588  0.105329E-05  0.358E-03    0.01       2.5  T
  78   -209.3269548  0.396482E-05  0.427E-03    0.01       2.1  T
  79   -209.3269617 -0.694782E-05  0.242E-03    0.01       3.7  T
  80   -209.3269598  0.196818E-05  0.272E-03    0.01       3.3  T
  81   -209.3269546  0.515115E-05  0.400E-03    0.01       2.3  T
  82   -209.3269611 -0.646045E-05  0.226E-03    0.01       4.0  T
  83   -209.3269624 -0.129948E-05  0.156E-03    0.01       5.8  T
  84   -209.3269577  0.463633E-05  0.309E-03    0.01       2.9  T
  85   -209.3269634 -0.567033E-05  0.682E-04    0.01      13.3  T
  86   -209.3269636 -0.142628E-06  0.411E-04    0.01      22.0  T
  87   -209.3269636 -0.837222E-07  0.197E-04    0.01      46.0  T
  88   -209.3269636 -0.116633E-07  0.117E-04    0.01      77.7  T

   *** convergence criteria satisfied after 88 iterations ***

         #    Occupation            Energy/Eh            Energy/eV
      -------------------------------------------------------------
         1        2.0000           -0.7714650             -20.9926
       ...           ...                  ...                  ...
       185        1.9993           -0.3691116             -10.0440
       186        1.9986           -0.3684859             -10.0270
       187        1.9983           -0.3683237             -10.0226
       188        1.9956           -0.3674217              -9.9981
       189        1.9956           -0.3674122              -9.9978
       190        1.5732           -0.3628395              -9.8734
       191        1.2498           -0.3620849              -9.8528 (HOMO)
       192        1.1208           -0.3618306              -9.8459 (LUMO)
       193        0.0698           -0.3584457              -9.7538
       194        0.0000           -0.3463105              -9.4236
       195                         -0.3203869              -8.7182
       196                         -0.3198582              -8.7038
       ...                                ...                  ...
       414                         12.4792139             339.5767
      -------------------------------------------------------------
                  HL-Gap            0.0002543 Eh            0.0069 eV
             Fermi-level           -0.3616000 Eh           -9.8396 eV

 SCC (total)                   0 d,  0 h,  0 min,  5.647 sec
 SCC setup                      ...        0 min,  0.006 sec (  0.113%)
 Dispersion                     ...        0 min,  0.005 sec (  0.094%)
 classical contributions        ...        0 min,  0.002 sec (  0.034%)
 integral evaluation            ...        0 min,  0.187 sec (  3.307%)
 iterations                     ...        0 min,  4.963 sec ( 87.901%)
 molecular gradient             ...        0 min,  0.469 sec (  8.298%)
 printout                       ...        0 min,  0.014 sec (  0.252%)

         :::::::::::::::::::::::::::::::::::::::::::::::::::::
         ::                     SUMMARY                     ::
         :::::::::::::::::::::::::::::::::::::::::::::::::::::
         :: total energy            -203.873924083873 Eh    ::
         :: gradient norm              6.970462762090 Eh/a0 ::
         :: HOMO-LUMO gap              0.006919401979 eV    ::
         ::.................................................::
         :: SCC energy              -209.326963645726 Eh    ::
         :: -> electrostatic           0.173594578023 Eh    ::
         :: repulsion energy           5.558272677744 Eh    ::
         :: dispersion energy         -0.105233115891 Eh    ::
         :: halogen bond corr.         0.000000000000 Eh    ::
         :: add. restraining           0.000000000000 Eh    ::
         :: total charge               0.000000000024 e     ::
         :::::::::::::::::::::::::::::::::::::::::::::::::::::

      ----------------------------------------------------------- 
     |                   =====================                   |
     |                        A N C O P T                        |
     |                   =====================                   |
     |               Approximate Normal Coordinate               |
     |                Rational Function Optimizer                |
      ----------------------------------------------------------- 

          ...................................................
          :                      SETUP                      :
          :.................................................:
          :   optimization level            normal          :
          :   max. optcycles                   366          :
          :   ANC micro-cycles                  20          :
          :   degrees of freedom               360          :
          :.................................................:
          :   RF solver                   davidson          :
          :   write xtbopt.log                true          :
          :   linear?                        false          :
          :   energy convergence         0.5000000E-05 Eh   :
          :   grad. convergence          0.1000000E-02 Eh/α :
          :   maximium RF displ.         1.0000000          :
          :   Hlow (freq-cutoff)         0.1000000E-01      :
          :   Hmax (freq-cutoff)         5.0000000          :
          :   S6 in model hess.         20.0000000          :
          ...................................................

generating ANC from model Hessian ...
Using Lindh-Hessian (1995)
 Shifting diagonal of input Hessian by    1.0030398199624410E-002
 Lowest  eigenvalues of input Hessian
    0.010000    0.010013    0.010025    0.000000    0.000000    0.000000
    0.000000    0.000000    0.000000    0.010050    0.010100    0.010185
    0.010215    0.010449    0.010563    0.010659    0.010730    0.010766
 Highest eigenvalues
    2.204451    2.695631    5.227788    5.251510    5.390138    5.596874


........................................................................
.............................. CYCLE    1 ..............................
........................................................................
   1   -209.3269637 -0.209327E+03  0.541E-05    0.01       0.0  T
   2   -209.3269593  0.437507E-05  0.262E-03    0.01       3.5  T
   3   -209.3269597 -0.450509E-06  0.249E-03    0.01       3.6  T
   4   -209.3269633 -0.354220E-05  0.771E-04    0.01      11.7  T
   5   -209.3269636 -0.373580E-06  0.120E-04    0.01      75.2  T
   6   -209.3269633  0.359165E-06  0.753E-04    0.01      12.0  T
   7   -209.3269636 -0.361624E-06  0.111E-04    0.01      81.7  T
     SCC iter.                  ...        0 min,  0.395 sec
     gradient                   ...        0 min,  0.468 sec
 * total energy  :  -203.8739241 Eh     change       -0.7051426E-10 Eh
   gradient norm :     6.9704623 Eh/α   predicted     0.0000000E+00 (-100.00%)
   displ. norm   :     0.7250842 α      lambda       -0.5001628E+01
   maximum displ.:     0.4679845 α      in ANC's #359, #358, #360, ...

........................................................................
.............................. CYCLE    2 ..............................
........................................................................
   1   -209.4948039 -0.209495E+03  0.423E-01    0.01       0.0  T
   2   -205.7281207  0.376668E+01  0.261E+00    0.02       1.0  T
   3   -209.1881223 -0.346000E+01  0.743E-01    0.05       1.0  T
   4   -203.1958287  0.599229E+01  0.313E+00    0.02       1.0  T
   5   -209.3913937 -0.619556E+01  0.486E-01    0.03       1.0  T
   6   -207.5368851  0.185451E+01  0.174E+00    0.10       1.0  T
   7   -206.3446120  0.119227E+01  0.220E+00    0.13       1.0  T
   8   -208.5085965 -0.216398E+01  0.124E+00    0.05       1.0  T
   9   -207.8921455  0.616451E+00  0.158E+00    0.08       1.0  T
  10   -209.4562470 -0.156410E+01  0.324E-01    0.01       1.0  T
  11   -209.4982621 -0.420150E-01  0.207E-01    0.01       1.0  T
  12   -209.4116106  0.866515E-01  0.416E-01    0.01       1.0  T
  13   -209.5202937 -0.108683E+00  0.890E-02    0.02       1.0  T
  14   -209.4232185  0.970753E-01  0.394E-01    0.01       1.0  T
  15   -209.5240056 -0.100787E+00  0.438E-02    0.02       1.0  T
  16   -209.4874897  0.365159E-01  0.240E-01    0.01       1.0  T
  17   -209.5250503 -0.375606E-01  0.151E-02    0.02       1.0  T
  18   -209.5232804  0.176992E-02  0.541E-02    0.02       1.0  T
  19   -209.5250982 -0.181785E-02  0.114E-02    0.02       1.0  T
  20   -209.5250640  0.342054E-04  0.131E-02    0.02       1.0  T
  21   -209.5251640 -0.999885E-04  0.468E-03    0.02       1.9  T
  22   -209.5250728  0.912383E-04  0.127E-02    0.02       1.0  T
  23   -209.5251634 -0.906163E-04  0.482E-03    0.02       1.9  T
  24   -209.5251667 -0.334733E-05  0.426E-03    0.02       2.1  T
  25   -209.5251753 -0.862027E-05  0.224E-03    0.02       4.1  T
  26   -209.5251784 -0.305260E-05  0.575E-04    0.02      15.7  T
  27   -209.5251786 -0.165459E-06  0.280E-04    0.02      32.4  T
  28   -209.5251786 -0.507005E-07  0.266E-05    0.02     340.7  T
  29   -209.5251786  0.254829E-09  0.330E-05    0.02     273.9  T
     SCC iter.                  ...        0 min,  1.634 sec
     gradient                   ...        0 min,  0.467 sec
 * total energy  :  -205.8013672 Eh     change       -0.1927443E+01 Eh
   gradient norm :     0.9031630 Eh/α   predicted    -0.3825243E+01 (  98.46%)
   displ. norm   :     0.5105480 α      lambda       -0.4197077E+00
   maximum displ.:     0.2141453 α      in ANC's #294, #304, #356, ...

........................................................................
.............................. CYCLE    3 ..............................
........................................................................
   1   -209.4579942 -0.209458E+03  0.148E-01    0.00       0.0  T
   2   -208.9019944  0.556000E+00  0.931E-01    0.03       1.0  T
   3   -205.7181832  0.318381E+01  0.240E+00    0.08       1.0  T
   4   -206.8835830 -0.116540E+01  0.218E+00    0.02       1.0  T
   5   -209.0396601 -0.215608E+01  0.826E-01    0.04       1.0  T
   6   -209.2072074 -0.167547E+00  0.634E-01    0.04       1.0  T
   7   -206.4253084  0.278190E+01  0.215E+00    0.12       1.0  T
   8   -209.2940906 -0.286878E+01  0.514E-01    0.03       1.0  T
   9   -209.3851761 -0.910855E-01  0.355E-01    0.02       1.0  T
  10   -209.4504675 -0.652914E-01  0.132E-01    0.01       1.0  T
  11   -209.4571319 -0.666434E-02  0.857E-02    0.00       1.0  T
  12   -209.4504805  0.665134E-02  0.132E-01    0.01       1.0  T
  13   -209.4584011 -0.792059E-02  0.708E-02    0.00       1.0  T
  14   -209.4612722 -0.287105E-02  0.209E-02    0.00       1.0  T
  15   -209.4613862 -0.114070E-03  0.151E-02    0.00       1.0  T
  16   -209.4614784 -0.921212E-04  0.808E-03    0.00       1.1  T
  17   -209.4615137 -0.353678E-04  0.224E-03    0.00       4.0  T
  18   -209.4614752  0.385433E-04  0.792E-03    0.00       1.1  T
  19   -209.4615155 -0.403096E-04  0.145E-03    0.00       6.2  T
  20   -209.4614900  0.255157E-04  0.635E-03    0.00       1.4  T
  21   -209.4615123 -0.223080E-04  0.256E-03    0.00       3.5  T
  22   -209.4615092  0.308160E-05  0.334E-03    0.00       2.7  T
  23   -209.4615155 -0.633491E-05  0.120E-03    0.00       7.5  T
  24   -209.4615165 -0.904828E-06  0.214E-04    0.00      42.4  T
  25   -209.4615165 -0.264994E-07  0.560E-05    0.00     161.6  T
  26   -209.4615165  0.138431E-08  0.706E-05    0.00     128.3  T
     SCC iter.                  ...        0 min,  1.470 sec
     gradient                   ...        0 min,  0.468 sec
 * total energy  :  -206.0088657 Eh     change       -0.2074985E+00 Eh
   gradient norm :     0.5284201 Eh/α   predicted    -0.2645546E+00 (  27.50%)
   displ. norm   :     0.4927245 α      lambda       -0.1103114E+00
   maximum displ.:     0.1434309 α      in ANC's #102, #128, #84, ...

........................................................................
.............................. CYCLE    4 ..............................
........................................................................
   1   -209.5070294 -0.209507E+03  0.170E-01    0.00       0.0  T
   2   -208.5692366  0.937793E+00  0.125E+00    0.14       1.0  T
   3   -208.7513553 -0.182119E+00  0.115E+00    0.08       1.0  T
   4   -206.7644473  0.198691E+01  0.207E+00    0.11       1.0  T
   5   -209.2357000 -0.247125E+01  0.669E-01    0.04       1.0  T
   6   -208.1981918  0.103751E+01  0.143E+00    0.08       1.0  T
   7   -209.3680278 -0.116984E+01  0.480E-01    0.01       1.0  T
   8   -209.2100307  0.157997E+00  0.689E-01    0.04       1.0  T
   9   -209.4354812 -0.225450E+00  0.356E-01    0.02       1.0  T
  10   -209.4840311 -0.485499E-01  0.223E-01    0.01       1.0  T
  11   -209.5009036 -0.168725E-01  0.153E-01    0.00       1.0  T
  12   -209.5132300 -0.123264E-01  0.726E-02    0.01       1.0  T
  13   -209.5093228  0.390719E-02  0.104E-01    0.00       1.0  T
  14   -209.5160828 -0.675997E-02  0.252E-02    0.00       1.0  T
  15   -209.5160728  0.100589E-04  0.248E-02    0.00       1.0  T
  16   -209.5163135 -0.240697E-03  0.141E-02    0.00       1.0  T
  17   -209.5164291 -0.115676E-03  0.141E-03    0.00       6.4  T
  18   -209.5163812  0.479139E-04  0.875E-03    0.00       1.0  T
  19   -209.5164262 -0.449952E-04  0.263E-03    0.00       3.4  T
  20   -209.5164199  0.634318E-05  0.397E-03    0.00       2.3  T
  21   -209.5164233 -0.345127E-05  0.321E-03    0.00       2.8  T
  22   -209.5164287 -0.533107E-05  0.145E-03    0.00       6.2  T
  23   -209.5164299 -0.124800E-05  0.402E-04    0.00      22.5  T
  24   -209.5164300 -0.619762E-07  0.261E-04    0.00      34.7  T
  25   -209.5164300 -0.428098E-07  0.359E-05    0.00     252.2  T
  26   -209.5164300 -0.479730E-09  0.210E-05    0.00     430.9  T
     SCC iter.                  ...        0 min,  1.473 sec
     gradient                   ...        0 min,  0.470 sec
 * total energy  :  -206.0945473 Eh     change       -0.8568167E-01 Eh
   gradient norm :     0.3515769 Eh/α   predicted    -0.6854647E-01 ( -20.00%)
   displ. norm   :     0.5504156 α      lambda       -0.7655296E-01
   maximum displ.:     0.1715752 α      in ANC's #84, #102, #128, ...

........................................................................
.............................. CYCLE    5 ..............................
........................................................................
   1   -209.5724203 -0.209572E+03  0.157E-01    0.04       0.0  T
   2   -209.2859266  0.286494E+00  0.702E-01    0.15       1.0  T
   3   -208.5398324  0.746094E+00  0.141E+00    0.03       1.0  T
   4   -205.3554044  0.318443E+01  0.256E+00    0.02       1.0  T
   5   -209.5519740 -0.419657E+01  0.217E-01    0.02       1.0  T
   6   -209.1142883  0.437686E+00  0.875E-01    0.04       1.0  T
   7   -206.8201060  0.229418E+01  0.206E+00    0.05       1.0  T
   8   -209.4145966 -0.259449E+01  0.512E-01    0.05       1.0  T
   9   -209.5636813 -0.149085E+00  0.155E-01    0.04       1.0  T
  10   -209.4625779  0.101103E+00  0.427E-01    0.03       1.0  T
  11   -209.5456573 -0.830794E-01  0.240E-01    0.06       1.0  T
  12   -209.5549237 -0.926647E-02  0.198E-01    0.03       1.0  T
  13   -209.5785608 -0.236370E-01  0.530E-02    0.04       1.0  T
  14   -209.5780730  0.487761E-03  0.608E-02    0.03       1.0  T
  15   -209.5795255 -0.145251E-02  0.337E-02    0.04       1.0  T
  16   -209.5793210  0.204546E-03  0.373E-02    0.04       1.0  T
  17   -209.5788411  0.479900E-03  0.417E-02    0.04       1.0  T
  18   -209.5770714  0.176968E-02  0.664E-02    0.04       1.0  T
  19   -209.5794210 -0.234957E-02  0.292E-02    0.04       1.0  T
  20   -209.5789473  0.473657E-03  0.399E-02    0.04       1.0  T
  21   -209.5795814 -0.634127E-03  0.246E-02    0.04       1.0  T
  22   -209.5799611 -0.379667E-03  0.470E-03    0.04       1.9  T
  23   -209.5799696 -0.846132E-05  0.208E-03    0.04       4.4  T
  24   -209.5799708 -0.122637E-05  0.145E-03    0.04       6.3  T
  25   -209.5799692  0.154927E-05  0.211E-03    0.04       4.3  T
  26   -209.5799721 -0.286746E-05  0.138E-04    0.04      65.8  T
  27   -209.5799721  0.717628E-08  0.167E-04    0.04      54.3  T
  28   -209.5799721 -0.122075E-07  0.871E-05    0.04     104.0  T
     SCC iter.                  ...        0 min,  1.583 sec
     gradient                   ...        0 min,  0.468 sec
 * total energy  :  -206.1483634 Eh     change       -0.5381611E-01 Eh
   gradient norm :     0.1839717 Eh/α   predicted    -0.4987261E-01 (  -7.33%)
   displ. norm   :     0.5942697 α      lambda       -0.3253143E-01
   maximum displ.:     0.2203628 α      in ANC's #22, #84, #36, ...

........................................................................
.............................. CYCLE    6 ..............................
........................................................................
   1   -209.5609347 -0.209561E+03  0.252E-01    0.10       0.0  T
   2   -205.0123418  0.454859E+01  0.282E+00    0.01       1.0  T
   3   -209.5559313 -0.454359E+01  0.294E-01    0.02       1.0  T
   4   -208.2063516  0.134958E+01  0.148E+00    0.03       1.0  T
   5   -209.5457803 -0.133943E+01  0.281E-01    0.03       1.0  T
   6   -209.5645109 -0.187306E-01  0.218E-01    0.04       1.0  T
   7   -209.5861594 -0.216485E-01  0.121E-01    0.04       1.0  T
   8   -209.5729375  0.132219E-01  0.182E-01    0.04       1.0  T
   9   -209.5716792  0.125825E-02  0.200E-01    0.07       1.0  T
  10   -209.5782150 -0.653578E-02  0.172E-01    0.07       1.0  T
  11   -209.5792272 -0.101224E-02  0.165E-01    0.07       1.0  T
  12   -209.5931558 -0.139286E-01  0.547E-02    0.06       1.0  T
  13   -209.5933908 -0.234982E-03  0.489E-02    0.06       1.0  T
  14   -209.5944160 -0.102520E-02  0.231E-02    0.06       1.0  T
  15   -209.5945662 -0.150187E-03  0.188E-02    0.05       1.0  T
  16   -209.5947315 -0.165390E-03  0.983E-03    0.06       1.0  T
  17   -209.5947495 -0.179501E-04  0.737E-03    0.06       1.2  T
  18   -209.5947694 -0.198959E-04  0.485E-03    0.06       1.9  T
  19   -209.5947780 -0.860151E-05  0.316E-03    0.06       2.9  T
  20   -209.5947836 -0.560246E-05  0.105E-03    0.06       8.6  T
  21   -209.5947841 -0.522117E-06  0.528E-04    0.06      17.2  T
  22   -209.5947843 -0.154036E-06  0.172E-04    0.06      52.7  T
  23   -209.5947843 -0.153824E-07  0.618E-05    0.06     146.5  T
     SCC iter.                  ...        0 min,  1.300 sec
     gradient                   ...        0 min,  0.470 sec
 * total energy  :  -206.1733764 Eh     change       -0.2501295E-01 Eh
   gradient norm :     0.1120634 Eh/α   predicted    -0.2201006E-01 ( -12.01%)
   displ. norm   :     0.6548082 α      lambda       -0.2110346E-01
   maximum displ.:     0.3249644 α      in ANC's #22, #36, #31, ...

........................................................................
.............................. CYCLE    7 ..............................
........................................................................
   1   -209.5388722 -0.209539E+03  0.305E-01    0.13       0.0  T
   2   -204.3531182  0.518575E+01  0.299E+00    0.01       1.0  T
   3   -209.5832305 -0.523011E+01  0.101E-01    0.06       1.0  T
   4   -208.0390297  0.154420E+01  0.155E+00    0.00       1.0  T
   5   -209.5732851 -0.153426E+01  0.152E-01    0.07       1.0  T
   6   -209.5750644 -0.177931E-02  0.149E-01    0.05       1.0  T
   7   -209.5640206  0.110438E-01  0.214E-01    0.04       1.0  T
   8   -209.5640624 -0.418170E-04  0.214E-01    0.04       1.0  T
   9   -209.5710866 -0.702415E-02  0.167E-01    0.04       1.0  T
  10   -209.5844845 -0.133979E-01  0.783E-02    0.06       1.0  T
  11   -209.5880608 -0.357635E-02  0.242E-02    0.07       1.0  T
  12   -209.5834355  0.462534E-02  0.953E-02    0.08       1.0  T
  13   -209.5842959 -0.860403E-03  0.831E-02    0.07       1.0  T
  14   -209.5881638 -0.386795E-02  0.230E-02    0.07       1.0  T
  15   -209.5884640 -0.300188E-03  0.363E-03    0.07       2.5  T
  16   -209.5883896  0.743942E-04  0.123E-02    0.07       1.0  T
  17   -209.5884201 -0.304644E-04  0.897E-03    0.07       1.0  T
  18   -209.5884652 -0.450766E-04  0.302E-03    0.07       3.0  T
  19   -209.5884640  0.113574E-05  0.331E-03    0.07       2.7  T
  20   -209.5884637  0.339475E-06  0.337E-03    0.07       2.7  T
  21   -209.5884689 -0.518034E-05  0.176E-03    0.07       5.1  T
  22   -209.5884697 -0.789120E-06  0.133E-03    0.07       6.8  T
  23   -209.5884702 -0.552086E-06  0.920E-04    0.07       9.8  T
  24   -209.5884707 -0.477286E-06  0.347E-04    0.07      26.1  T
  25   -209.5884707 -0.549381E-07  0.175E-04    0.07      51.8  T
  26   -209.5884708 -0.171387E-07  0.456E-05    0.07     198.7  T
     SCC iter.                  ...        0 min,  1.469 sec
     gradient                   ...        0 min,  0.469 sec
 * total energy  :  -206.1902500 Eh     change       -0.1687360E-01 Eh
   gradient norm :     0.0735539 Eh/α   predicted    -0.1507605E-01 ( -10.65%)
   displ. norm   :     0.6984353 α      lambda       -0.1484555E-01
   maximum displ.:     0.4377467 α      in ANC's #22, #36, #31, ...

........................................................................
.............................. CYCLE    8 ..............................
........................................................................
   1   -209.5365973 -0.209537E+03  0.263E-01    0.13       0.0  T
   2   -204.7284103  0.480819E+01  0.288E+00    0.01       1.0  T
   3   -209.5568813 -0.482847E+01  0.162E-01    0.09       1.0  T
   4   -206.0390184  0.351786E+01  0.234E+00    0.02       1.0  T
   5   -209.5629427 -0.352392E+01  0.127E-01    0.09       1.0  T
   6   -209.5668932 -0.395047E-02  0.110E-01    0.06       1.0  T
   7   -209.5596894  0.720384E-02  0.159E-01    0.05       1.0  T
   8   -209.5451423  0.145471E-01  0.204E-01    0.06       1.0  T
   9   -209.5503043 -0.516209E-02  0.186E-01    0.05       1.0  T
  10   -209.5727036 -0.223992E-01  0.198E-02    0.07       1.0  T
  11   -209.5661960  0.650751E-02  0.107E-01    0.08       1.0  T
  12   -209.5685354 -0.233940E-02  0.844E-02    0.08       1.0  T
  13   -209.5722313 -0.369581E-02  0.343E-02    0.08       1.0  T
  14   -209.5727335 -0.502250E-03  0.212E-02    0.08       1.0  T
  15   -209.5729419 -0.208439E-03  0.110E-02    0.08       1.0  T
  16   -209.5729603 -0.183877E-04  0.935E-03    0.08       1.0  T
  17   -209.5730019 -0.415922E-04  0.331E-03    0.08       2.7  T
  18   -209.5730069 -0.493758E-05  0.171E-03    0.08       5.3  T
  19   -209.5730050  0.184991E-05  0.240E-03    0.08       3.8  T
  20   -209.5730069 -0.189160E-05  0.163E-03    0.08       5.6  T
  21   -209.5730078 -0.870199E-06  0.107E-03    0.08       8.5  T
  22   -209.5730084 -0.577635E-06  0.409E-04    0.08      22.1  T
  23   -209.5730084 -0.291293E-07  0.321E-04    0.08      28.2  T
  24   -209.5730084 -0.561702E-07  0.149E-04    0.08      60.7  T
  25   -209.5730085 -0.135687E-07  0.385E-05    0.08     235.1  T
     SCC iter.                  ...        0 min,  1.415 sec
     gradient                   ...        0 min,  0.469 sec
 * total energy  :  -206.2023070 Eh     change       -0.1205703E-01 Eh
   gradient norm :     0.0464675 Eh/α   predicted    -0.1104371E-01 (  -8.40%)
   displ. norm   :     0.7257549 α      lambda       -0.1047393E-01
   maximum displ.:     0.5406638 α      in ANC's #22, #36, #31, ...

........................................................................
.............................. CYCLE    9 ..............................
........................................................................
   1   -209.5428645 -0.209543E+03  0.171E-01    0.11       0.0  T
   2   -205.5656384  0.397723E+01  0.262E+00    0.01       1.0  T
   3   -209.5364063 -0.397077E+01  0.190E-01    0.11       1.0  T
   4   -206.0413290  0.349508E+01  0.233E+00    0.01       1.0  T
   5   -209.5413479 -0.350002E+01  0.166E-01    0.11       1.0  T
   6   -209.5554157 -0.140677E-01  0.607E-02    0.09       1.0  T
   7   -209.5573719 -0.195625E-02  0.392E-02    0.08       1.0  T
   8   -209.5575877 -0.215797E-03  0.320E-02    0.08       1.0  T
   9   -209.5537222  0.386554E-02  0.869E-02    0.07       1.0  T
  10   -209.5525886  0.113357E-02  0.940E-02    0.07       1.0  T
  11   -209.5573235 -0.473488E-02  0.313E-02    0.09       1.0  T
  12   -209.5558154  0.150808E-02  0.585E-02    0.09       1.0  T
  13   -209.5574954 -0.167999E-02  0.277E-02    0.09       1.0  T
  14   -209.5577727 -0.277343E-03  0.162E-02    0.08       1.0  T
  15   -209.5579395 -0.166748E-03  0.461E-03    0.08       2.0  T
  16   -209.5579244  0.150525E-04  0.638E-03    0.08       1.4  T
  17   -209.5579488 -0.243384E-04  0.165E-03    0.08       5.5  T
  18   -209.5579483  0.518231E-06  0.184E-03    0.08       4.9  T
  19   -209.5579501 -0.178998E-05  0.662E-04    0.08      13.7  T
  20   -209.5579497  0.379383E-06  0.101E-03    0.08       9.0  T
  21   -209.5579498 -0.148451E-06  0.863E-04    0.08      10.5  T
  22   -209.5579501 -0.236584E-06  0.600E-04    0.08      15.1  T
  23   -209.5579502 -0.166879E-06  0.299E-04    0.08      30.3  T
  24   -209.5579503 -0.512348E-07  0.980E-05    0.08      92.4  T
  25   -209.5579503 -0.380476E-08  0.538E-05    0.08     168.4  T
     SCC iter.                  ...        0 min,  1.411 sec
     gradient                   ...        0 min,  0.468 sec
 * total energy  :  -206.2109485 Eh     change       -0.8641453E-02 Eh
   gradient norm :     0.0261616 Eh/α   predicted    -0.7995392E-02 (  -7.48%)
   displ. norm   :     0.7518413 α      lambda       -0.7681056E-02
   maximum displ.:     0.6212012 α      in ANC's #22, #36, #30, ...

........................................................................
.............................. CYCLE   10 ..............................
........................................................................
   1   -209.5424033 -0.209542E+03  0.756E-02    0.10       0.0  T
   2   -206.4658706  0.307653E+01  0.232E+00    0.02       1.0  T
   3   -209.5255398 -0.305967E+01  0.184E-01    0.12       1.0  T
   4   -209.4145269  0.111013E+00  0.449E-01    0.08       1.0  T
   5   -209.5232980 -0.108771E+00  0.191E-01    0.11       1.0  T
   6   -209.5277350 -0.443691E-02  0.170E-01    0.12       1.0  T
   7   -209.5385470 -0.108121E-01  0.102E-01    0.10       1.0  T
   8   -209.5398109 -0.126383E-02  0.913E-02    0.10       1.0  T
   9   -209.5406973 -0.886411E-03  0.829E-02    0.10       1.0  T
  10   -209.5432045 -0.250723E-02  0.521E-02    0.09       1.0  T
  11   -209.5450156 -0.181113E-02  0.805E-03    0.09       1.1  T
  12   -209.5449214  0.942047E-04  0.151E-02    0.09       1.0  T
  13   -209.5447142  0.207213E-03  0.232E-02    0.08       1.0  T
  14   -209.5448733 -0.159116E-03  0.170E-02    0.09       1.0  T
  15   -209.5449936 -0.120304E-03  0.871E-03    0.09       1.0  T
  16   -209.5450000 -0.641077E-05  0.819E-03    0.09       1.1  T
  17   -209.5450426 -0.425349E-04  0.127E-03    0.09       7.1  T
  18   -209.5450428 -0.263816E-06  0.115E-03    0.09       7.9  T
  19   -209.5450434 -0.512148E-06  0.747E-04    0.09      12.1  T
  20   -209.5450437 -0.325436E-06  0.140E-04    0.09      64.9  T
  21   -209.5450437 -0.663979E-08  0.949E-05    0.09      95.4  T
     SCC iter.                  ...        0 min,  1.186 sec
     gradient                   ...        0 min,  0.465 sec
 * total energy  :  -206.2174170 Eh     change       -0.6468510E-02 Eh
   gradient norm :     0.0165568 Eh/α   predicted    -0.6011490E-02 (  -7.07%)
   displ. norm   :     0.7156402 α      lambda       -0.5553317E-02
   maximum displ.:     0.6088282 α      in ANC's #22, #8, #36, ...

........................................................................
.............................. CYCLE   11 ..............................
........................................................................
   1   -209.5340635 -0.209534E+03  0.166E-02    0.09       0.0  T
   2   -209.5302481  0.381540E-02  0.810E-02    0.10       1.0  T
   3   -209.5183390  0.119091E-01  0.156E-01    0.07       1.0  T
   4   -209.3222461  0.196093E+00  0.572E-01    0.04       1.0  T
   5   -209.5294716 -0.207225E+00  0.914E-02    0.10       1.0  T
   6   -209.5303557 -0.884103E-03  0.815E-02    0.10       1.0  T
   7   -209.5309226 -0.566881E-03  0.744E-02    0.10       1.0  T
   8   -209.5325278 -0.160518E-02  0.513E-02    0.09       1.0  T
   9   -209.5337374 -0.120961E-02  0.248E-02    0.09       1.0  T
  10   -209.5341013 -0.363927E-03  0.452E-03    0.09       2.0  T
  11   -209.5340906  0.107497E-04  0.647E-03    0.09       1.4  T
  12   -209.5340747  0.159004E-04  0.837E-03    0.09       1.1  T
  13   -209.5340794 -0.474301E-05  0.767E-03    0.09       1.2  T
  14   -209.5341151 -0.357207E-04  0.156E-03    0.09       5.8  T
  15   -209.5341166 -0.144851E-05  0.188E-04    0.09      48.1  T
  16   -209.5341166 -0.223300E-07  0.550E-05    0.09     164.7  T
  17   -209.5341166  0.274815E-08  0.836E-05    0.09     108.3  T
     SCC iter.                  ...        0 min,  0.959 sec
     gradient                   ...        0 min,  0.465 sec
 * total energy  :  -206.2222104 Eh     change       -0.4793385E-02 Eh
   gradient norm :     0.0166508 Eh/α   predicted    -0.4198702E-02 ( -12.41%)
   displ. norm   :     0.6752549 α      lambda       -0.4262763E-02
   maximum displ.:     0.5728019 α      in ANC's #22, #8, #30, ...

........................................................................
.............................. CYCLE   12 ..............................
........................................................................
   1   -209.5254124 -0.209525E+03  0.326E-02    0.08       0.0  T
   2   -209.4082313  0.117181E+00  0.450E-01    0.17       1.0  T
   3   -209.5130255 -0.104794E+00  0.148E-01    0.10       1.0  T
   4   -209.4729892  0.400363E-01  0.287E-01    0.08       1.0  T
   5   -209.5253882 -0.523990E-01  0.355E-02    0.09       1.0  T
   6   -209.5259146 -0.526374E-03  0.151E-02    0.08       1.0  T
   7   -209.5259547 -0.401751E-04  0.128E-02    0.08       1.0  T
   8   -209.5257156  0.239098E-03  0.231E-02    0.08       1.0  T
   9   -209.5256631  0.525233E-04  0.241E-02    0.08       1.0  T
  10   -209.5260285 -0.365429E-03  0.617E-03    0.09       1.5  T
  11   -209.5260368 -0.825296E-05  0.512E-03    0.08       1.8  T
  12   -209.5260464 -0.960798E-05  0.288E-03    0.08       3.1  T
  13   -209.5260515 -0.505064E-05  0.337E-04    0.09      26.8  T
  14   -209.5260509  0.548252E-06  0.104E-03    0.09       8.7  T
  15   -209.5260512 -0.322651E-06  0.715E-04    0.09      12.7  T
  16   -209.5260515 -0.284759E-06  0.115E-04    0.09      78.5  T
  17   -209.5260515 -0.512591E-08  0.662E-05    0.09     136.8  T
     SCC iter.                  ...        0 min,  0.965 sec
     gradient                   ...        0 min,  0.465 sec
 * total energy  :  -206.2259304 Eh     change       -0.3720052E-02 Eh
   gradient norm :     0.0162681 Eh/α   predicted    -0.3103252E-02 ( -16.58%)
   displ. norm   :     0.6576382 α      lambda       -0.3393739E-02
   maximum displ.:     0.5463253 α      in ANC's #22, #8, #23, ...

........................................................................
.............................. CYCLE   13 ..............................
........................................................................
   1   -209.5199459 -0.209520E+03  0.326E-02    0.08       0.0  T
   2   -209.4025361  0.117410E+00  0.450E-01    0.16       1.0  T
   3   -209.5080328 -0.105497E+00  0.141E-01    0.09       1.0  T
   4   -209.5042916  0.374123E-02  0.160E-01    0.09       1.0  T
   5   -209.5204268 -0.161352E-01  0.149E-02    0.08       1.0  T
   6   -209.5204086  0.181758E-04  0.161E-02    0.08       1.0  T
   7   -209.5205324 -0.123790E-03  0.642E-03    0.08       1.4  T
   8   -209.5201906  0.341829E-03  0.251E-02    0.08       1.0  T
   9   -209.5204245 -0.233917E-03  0.142E-02    0.08       1.0  T
  10   -209.5204657 -0.411243E-04  0.112E-02    0.08       1.0  T
  11   -209.5205539 -0.882417E-04  0.125E-03    0.08       7.2  T
  12   -209.5205499  0.397422E-05  0.270E-03    0.08       3.4  T
  13   -209.5205545 -0.455628E-05  0.959E-04    0.08       9.4  T
  14   -209.5205549 -0.452076E-06  0.356E-04    0.08      25.4  T
  15   -209.5205549  0.319756E-07  0.426E-04    0.08      21.2  T
  16   -209.5205550 -0.836122E-07  0.184E-04    0.08      49.1  T
  17   -209.5205550 -0.160178E-07  0.751E-05    0.08     120.6  T
     SCC iter.                  ...        0 min,  0.946 sec
     gradient                   ...        0 min,  0.459 sec
 * total energy  :  -206.2288736 Eh     change       -0.2943179E-02 Eh
   gradient norm :     0.0148100 Eh/α   predicted    -0.2430748E-02 ( -17.41%)
   displ. norm   :     0.6476102 α      lambda       -0.2642911E-02
   maximum displ.:     0.5218003 α      in ANC's #22, #8, #20, ...

........................................................................
.............................. CYCLE   14 ..............................
........................................................................
   1   -209.5159868 -0.209516E+03  0.188E-02    0.08       0.0  T
   2   -209.4428332  0.731536E-01  0.358E-01    0.15       1.0  T
   3   -209.5057183 -0.628851E-01  0.126E-01    0.07       1.0  T
   4   -209.5010574  0.466088E-02  0.151E-01    0.07       1.0  T
   5   -209.5144418 -0.133843E-01  0.546E-02    0.09       1.0  T
   6   -209.5160741 -0.163228E-02  0.112E-02    0.08       1.0  T
   7   -209.5161025 -0.284838E-04  0.906E-03    0.08       1.0  T
   8   -209.5161005  0.202583E-05  0.906E-03    0.08       1.0  T
   9   -209.5159837  0.116772E-03  0.155E-02    0.08       1.0  T
  10   -209.5161371 -0.153392E-03  0.462E-03    0.08       2.0  T
  11   -209.5161399 -0.276870E-05  0.392E-03    0.08       2.3  T
  12   -209.5161504 -0.104533E-04  0.606E-04    0.08      14.9  T
  13   -209.5161503  0.425401E-07  0.632E-04    0.08      14.3  T
  14   -209.5161505 -0.219767E-06  0.292E-04    0.08      31.1  T
  15   -209.5161506 -0.399944E-07  0.117E-04    0.08      77.6  T
  16   -209.5161506 -0.783024E-08  0.223E-05    0.08     405.7  T
     SCC iter.                  ...        0 min,  0.888 sec
     gradient                   ...        0 min,  0.456 sec
 * total energy  :  -206.2311441 Eh     change       -0.2270466E-02 Eh
   gradient norm :     0.0127202 Eh/α   predicted    -0.1875674E-02 ( -17.39%)
   displ. norm   :     0.6424505 α      lambda       -0.2033474E-02
   maximum displ.:     0.4945146 α      in ANC's #22, #8, #20, ...

........................................................................
.............................. CYCLE   15 ..............................
........................................................................
   1   -209.5121868 -0.209512E+03  0.112E-02    0.08       0.0  T
   2   -209.4718185  0.403683E-01  0.263E-01    0.05       1.0  T
   3   -209.5062368 -0.344182E-01  0.955E-02    0.08       1.0  T
   4   -209.4784132  0.278236E-01  0.227E-01    0.07       1.0  T
   5   -209.5117017 -0.332885E-01  0.301E-02    0.08       1.0  T
   6   -209.5119243 -0.222597E-03  0.212E-02    0.08       1.0  T
   7   -209.5121408 -0.216497E-03  0.110E-02    0.08       1.0  T
   8   -209.5120790  0.618242E-04  0.145E-02    0.08       1.0  T
   9   -209.5121778 -0.988260E-04  0.829E-03    0.08       1.1  T
  10   -209.5122242 -0.464054E-04  0.206E-03    0.08       4.4  T
  11   -209.5122234  0.767224E-06  0.233E-03    0.08       3.9  T
  12   -209.5122252 -0.176120E-05  0.161E-03    0.08       5.6  T
  13   -209.5122259 -0.718092E-06  0.115E-03    0.08       7.9  T
  14   -209.5122266 -0.713844E-06  0.426E-04    0.08      21.3  T
  15   -209.5122267 -0.107672E-06  0.102E-04    0.08      89.1  T
  16   -209.5122268 -0.414258E-08  0.643E-05    0.08     140.8  T
     SCC iter.                  ...        0 min,  0.888 sec
     gradient                   ...        0 min,  0.454 sec
 * total energy  :  -206.2328694 Eh     change       -0.1725382E-02 Eh
   gradient norm :     0.0099359 Eh/α   predicted    -0.1436392E-02 ( -16.75%)
   displ. norm   :     0.6434583 α      lambda       -0.1554403E-02
   maximum displ.:     0.4681356 α      in ANC's #22, #8, #20, ...

........................................................................
.............................. CYCLE   16 ..............................
........................................................................
   1   -209.5077539 -0.209508E+03  0.195E-02    0.08       0.0  T
   2   -208.3588670  0.114889E+01  0.142E+00    0.01       1.0  T
   3   -209.5079276 -0.114906E+01  0.931E-03    0.08       1.0  T
   4   -209.4928038  0.151238E-01  0.152E-01    0.07       1.0  T
   5   -209.5044811 -0.116773E-01  0.728E-02    0.08       1.0  T
   6   -209.5077769 -0.329584E-02  0.172E-02    0.08       1.0  T
   7   -209.5078838 -0.106841E-03  0.112E-02    0.08       1.0  T
   8   -209.5079188 -0.349637E-04  0.776E-03    0.08       1.2  T
   9   -209.5079519 -0.331687E-04  0.198E-03    0.08       4.6  T
  10   -209.5079393  0.126250E-04  0.487E-03    0.08       1.9  T
  11   -209.5079396 -0.280178E-06  0.510E-03    0.08       1.8  T
  12   -209.5079298  0.976998E-05  0.648E-03    0.08       1.4  T
  13   -209.5079302 -0.409234E-06  0.649E-03    0.08       1.4  T
  14   -209.5079391 -0.884480E-05  0.515E-03    0.08       1.8  T
  15   -209.5079501 -0.110870E-04  0.274E-03    0.08       3.3  T
  16   -209.5079543 -0.413379E-05  0.743E-04    0.08      12.2  T
  17   -209.5079546 -0.317456E-06  0.142E-04    0.08      64.0  T
  18   -209.5079546 -0.112732E-07  0.272E-05    0.08     332.7  T
     SCC iter.                  ...        0 min,  0.994 sec
     gradient                   ...        0 min,  0.457 sec
 * total energy  :  -206.2341514 Eh     change       -0.1281959E-02 Eh
   gradient norm :     0.0069077 Eh/α   predicted    -0.1098997E-02 ( -14.27%)
   displ. norm   :     0.6297503 α      lambda       -0.1112137E-02
   maximum displ.:     0.4240754 α      in ANC's #22, #8, #20, ...

........................................................................
.............................. CYCLE   17 ..............................
........................................................................
   1   -209.5028199 -0.209503E+03  0.242E-02    0.08       0.0  T
   2   -207.5192701  0.198355E+01  0.188E+00    0.02       1.0  T
   3   -209.5028729 -0.198360E+01  0.226E-02    0.08       1.0  T
   4   -209.3671275  0.135745E+00  0.455E-01    0.06       1.0  T
   5   -209.5016598 -0.134532E+00  0.482E-02    0.08       1.0  T
   6   -209.5026230 -0.963253E-03  0.297E-02    0.08       1.0  T
   7   -209.5029061 -0.283083E-03  0.202E-02    0.08       1.0  T
   8   -209.5029158 -0.969604E-05  0.186E-02    0.08       1.0  T
   9   -209.5030895 -0.173689E-03  0.948E-03    0.08       1.0  T
  10   -209.5031402 -0.506988E-04  0.328E-03    0.08       2.8  T
  11   -209.5031074  0.327735E-04  0.847E-03    0.08       1.1  T
  12   -209.5030760  0.314814E-04  0.112E-02    0.08       1.0  T
  13   -209.5030400  0.359649E-04  0.135E-02    0.08       1.0  T
  14   -209.5031029 -0.629255E-04  0.867E-03    0.08       1.0  T
  15   -209.5031395 -0.366170E-04  0.367E-03    0.08       2.5  T
  16   -209.5031472 -0.764046E-05  0.850E-04    0.08      10.7  T
  17   -209.5031475 -0.319545E-06  0.381E-04    0.08      23.8  T
  18   -209.5031476 -0.762544E-07  0.149E-04    0.08      60.6  T
  19   -209.5031476 -0.992773E-08  0.768E-05    0.08     118.0  T
     SCC iter.                  ...        0 min,  1.052 sec
     gradient                   ...        0 min,  0.457 sec
 * total energy  :  -206.2350246 Eh     change       -0.8732451E-03 Eh
   gradient norm :     0.0063017 Eh/α   predicted    -0.7766055E-03 ( -11.07%)
   displ. norm   :     0.5004826 α      lambda       -0.6646353E-03
   maximum displ.:     0.3379852 α      in ANC's #8, #22, #20, ...

........................................................................
.............................. CYCLE   18 ..............................
........................................................................
   1   -209.4991522 -0.209499E+03  0.169E-02    0.08       0.0  T
   2   -208.5811971  0.917955E+00  0.127E+00    0.02       1.0  T
   3   -209.4769984 -0.895801E+00  0.184E-01    0.07       1.0  T
   4   -209.4576153  0.193831E-01  0.252E-01    0.07       1.0  T
   5   -209.4981937 -0.405784E-01  0.430E-02    0.08       1.0  T
   6   -209.4980659  0.127781E-03  0.460E-02    0.09       1.0  T
   7   -209.4990034 -0.937446E-03  0.225E-02    0.08       1.0  T
   8   -209.4988872  0.116226E-03  0.255E-02    0.08       1.0  T
   9   -209.4992172 -0.330079E-03  0.124E-02    0.08       1.0  T
  10   -209.4992551 -0.378276E-04  0.893E-03    0.08       1.0  T
  11   -209.4993074 -0.523559E-04  0.243E-03    0.08       3.7  T
  12   -209.4992488  0.585742E-04  0.104E-02    0.08       1.0  T
  13   -209.4992499 -0.102314E-05  0.101E-02    0.08       1.0  T
  14   -209.4992883 -0.384564E-04  0.613E-03    0.08       1.5  T
  15   -209.4993064 -0.180967E-04  0.250E-03    0.08       3.6  T
  16   -209.4993099 -0.351860E-05  0.644E-04    0.08      14.1  T
  17   -209.4993101 -0.201128E-06  0.286E-04    0.08      31.7  T
  18   -209.4993102 -0.421368E-07  0.131E-04    0.08      69.0  T
  19   -209.4993102 -0.795120E-08  0.712E-05    0.08     127.2  T
     SCC iter.                  ...        0 min,  1.043 sec
     gradient                   ...        0 min,  0.454 sec
 * total energy  :  -206.2355384 Eh     change       -0.5137942E-03 Eh
   gradient norm :     0.0074312 Eh/α   predicted    -0.4155597E-03 ( -19.12%)
   displ. norm   :     0.3867165 α      lambda       -0.4862516E-03
   maximum displ.:     0.2809717 α      in ANC's #8, #22, #14, ...

........................................................................
.............................. CYCLE   19 ..............................
........................................................................
   1   -209.4972549 -0.209497E+03  0.108E-02    0.08       0.0  T
   2   -209.2464470  0.250808E+00  0.665E-01    0.01       1.0  T
   3   -209.4848649 -0.238418E+00  0.138E-01    0.07       1.0  T
   4   -209.4870338 -0.216889E-02  0.126E-01    0.08       1.0  T
   5   -209.4969980 -0.996421E-02  0.231E-02    0.08       1.0  T
   6   -209.4968387  0.159308E-03  0.288E-02    0.08       1.0  T
   7   -209.4971091 -0.270420E-03  0.184E-02    0.08       1.0  T
   8   -209.4972345 -0.125382E-03  0.117E-02    0.08       1.0  T
   9   -209.4972846 -0.500960E-04  0.713E-03    0.08       1.3  T
  10   -209.4973106 -0.260473E-04  0.269E-03    0.08       3.4  T
  11   -209.4973129 -0.224190E-05  0.209E-03    0.08       4.3  T
  12   -209.4973047  0.812170E-05  0.419E-03    0.08       2.2  T
  13   -209.4973133 -0.852136E-05  0.193E-03    0.08       4.7  T
  14   -209.4973149 -0.161388E-05  0.953E-04    0.08       9.5  T
  15   -209.4973153 -0.478841E-06  0.311E-04    0.08      29.1  T
  16   -209.4973154 -0.591520E-07  0.472E-05    0.08     191.8  T
  17   -209.4973154 -0.129634E-08  0.933E-06    0.08     970.8  T
     SCC iter.                  ...        0 min,  0.935 sec
     gradient                   ...        0 min,  0.454 sec
 * total energy  :  -206.2359300 Eh     change       -0.3915956E-03 Eh
   gradient norm :     0.0083389 Eh/α   predicted    -0.2794869E-03 ( -28.63%)
   displ. norm   :     0.3440514 α      lambda       -0.4784249E-03
   maximum displ.:     0.2693599 α      in ANC's #8, #20, #14, ...

........................................................................
.............................. CYCLE   20 ..............................
........................................................................
   1   -209.4964977 -0.209496E+03  0.463E-03    0.08       0.0  T
   2   -209.4937246  0.277308E-02  0.660E-02    0.07       1.0  T
   3   -209.4769581  0.167665E-01  0.172E-01    0.07       1.0  T
   4   -209.4917555 -0.147974E-01  0.913E-02    0.09       1.0  T
   5   -209.4962211 -0.446560E-02  0.224E-02    0.08       1.0  T
   6   -209.4964415 -0.220338E-03  0.105E-02    0.08       1.0  T
   7   -209.4964639 -0.224586E-04  0.875E-03    0.08       1.0  T
   8   -209.4964099  0.539798E-04  0.121E-02    0.08       1.0  T
   9   -209.4965014 -0.914985E-04  0.318E-03    0.08       2.8  T
  10   -209.4965053 -0.382723E-05  0.173E-03    0.08       5.2  T
  11   -209.4965063 -0.101530E-05  0.106E-03    0.08       8.5  T
  12   -209.4965068 -0.550772E-06  0.458E-04    0.08      19.8  T
  13   -209.4965069 -0.589829E-07  0.317E-04    0.08      28.6  T
  14   -209.4965069 -0.500185E-07  0.152E-04    0.08      59.6  T
  15   -209.4965069 -0.103321E-07  0.847E-05    0.08     107.0  T
     SCC iter.                  ...        0 min,  0.828 sec
     gradient                   ...        0 min,  0.453 sec
 * total energy  :  -206.2363473 Eh     change       -0.4172895E-03 Eh
   gradient norm :     0.0074279 Eh/α   predicted    -0.2675338E-03 ( -35.89%)
   displ. norm   :     0.4092446 α      lambda       -0.5646113E-03
   maximum displ.:     0.3201439 α      in ANC's #8, #20, #14, ...
 * RMSD in coord.:     0.7895358 α      energy gain  -0.2362423E+01 Eh

generating ANC from model Hessian ...
Using Lindh-Hessian (1995)
 Shifting diagonal of input Hessian by    1.0022076742889543E-002
 Lowest  eigenvalues of input Hessian
    0.010000    0.010007    0.010014    0.000000    0.000000    0.000000
    0.000000    0.000000    0.000000    0.010030    0.010065    0.010178
    0.010193    0.010458    0.010579    0.010592    0.010732    0.010830
 Highest eigenvalues
    2.110142    2.145064    2.145080    2.237939    2.660841    2.988992


........................................................................
.............................. CYCLE   21 ..............................
........................................................................
   1   -209.4960699 -0.209496E+03  0.114E-02    0.08       0.0  T
   2   -209.4440341  0.520358E-01  0.303E-01    0.14       1.0  T
   3   -209.4880662 -0.440321E-01  0.112E-01    0.08       1.0  T
   4   -209.4866367  0.142950E-02  0.121E-01    0.08       1.0  T
   5   -209.4958713 -0.923463E-02  0.222E-02    0.08       1.0  T
   6   -209.4961375 -0.266210E-03  0.444E-03    0.08       2.0  T
   7   -209.4961255  0.119970E-04  0.656E-03    0.08       1.4  T
   8   -209.4960963  0.292146E-04  0.875E-03    0.08       1.0  T
   9   -209.4961452 -0.488950E-04  0.255E-03    0.08       3.5  T
  10   -209.4961489 -0.374933E-05  0.131E-03    0.08       6.9  T
  11   -209.4961488  0.148690E-06  0.136E-03    0.08       6.6  T
  12   -209.4961499 -0.108647E-05  0.458E-04    0.08      19.8  T
  13   -209.4961500 -0.114383E-06  0.192E-04    0.08      47.1  T
  14   -209.4961500  0.121653E-08  0.189E-04    0.08      47.8  T
     SCC iter.                  ...        0 min,  0.771 sec
     gradient                   ...        0 min,  0.451 sec
 * total energy  :  -206.2368204 Eh     change       -0.4731012E-03 Eh
   gradient norm :     0.0058680 Eh/α   predicted     0.0000000E+00 (-100.00%)
   displ. norm   :     0.1023042 α      lambda       -0.1695012E-03
   maximum displ.:     0.0796432 α      in ANC's #8, #23, #22, ...

........................................................................
.............................. CYCLE   22 ..............................
........................................................................
   1   -209.4971376 -0.209497E+03  0.517E-03    0.08       0.0  T
   2   -209.4774937  0.196438E-01  0.186E-01    0.11       1.0  T
   3   -209.4971463 -0.196526E-01  0.300E-03    0.08       3.0  T
   4   -209.4904894  0.665698E-02  0.100E-01    0.07       1.0  T
   5   -209.4971244 -0.663507E-02  0.652E-03    0.08       1.4  T
   6   -209.4971502 -0.257937E-04  0.173E-03    0.08       5.2  T
   7   -209.4971392  0.110563E-04  0.431E-03    0.08       2.1  T
   8   -209.4971456 -0.642719E-05  0.298E-03    0.08       3.0  T
   9   -209.4971517 -0.605876E-05  0.779E-04    0.08      11.6  T
  10   -209.4971520 -0.332575E-06  0.281E-04    0.08      32.2  T
  11   -209.4971520 -0.163345E-07  0.234E-04    0.08      38.6  T
  12   -209.4971520 -0.381629E-07  0.302E-05    0.08     299.8  T
  13   -209.4971520 -0.313833E-09  0.231E-05    0.08     392.4  T
     SCC iter.                  ...        0 min,  0.716 sec
     gradient                   ...        0 min,  0.449 sec
 * total energy  :  -206.2369713 Eh     change       -0.1508443E-03 Eh
   gradient norm :     0.0037495 Eh/α   predicted    -0.8563799E-04 ( -43.23%)
   displ. norm   :     0.3127690 α      lambda       -0.4317582E-03
   maximum displ.:     0.2218725 α      in ANC's #8, #23, #22, ...

........................................................................
.............................. CYCLE   23 ..............................
........................................................................
   1   -209.4982416 -0.209498E+03  0.184E-02    0.07       0.0  T
   2   -209.4201854  0.780562E-01  0.370E-01    0.15       1.0  T
   3   -209.4891614 -0.689760E-01  0.119E-01    0.07       1.0  T
   4   -209.4950328 -0.587135E-02  0.717E-02    0.07       1.0  T
   5   -209.4983113 -0.327851E-02  0.128E-02    0.08       1.0  T
   6   -209.4984197 -0.108435E-03  0.121E-03    0.08       7.5  T
   7   -209.4983123  0.107431E-03  0.124E-02    0.08       1.0  T
   8   -209.4984124 -0.100085E-03  0.332E-03    0.08       2.7  T
   9   -209.4984176 -0.524166E-05  0.213E-03    0.08       4.2  T
  10   -209.4984196 -0.191897E-05  0.120E-03    0.08       7.6  T
  11   -209.4984204 -0.854148E-06  0.136E-04    0.08      66.5  T
  12   -209.4984202  0.194940E-06  0.610E-04    0.08      14.8  T
  13   -209.4984204 -0.171499E-06  0.246E-04    0.08      36.8  T
  14   -209.4984204  0.188516E-08  0.250E-04    0.08      36.3  T
  15   -209.4984204 -0.331043E-07  0.531E-05    0.08     170.7  T
     SCC iter.                  ...        0 min,  0.824 sec
     gradient                   ...        0 min,  0.453 sec
 * total energy  :  -206.2371852 Eh     change       -0.2138834E-03 Eh
   gradient norm :     0.0059244 Eh/α   predicted    -0.2369976E-03 (  10.81%)
   displ. norm   :     0.3417387 α      lambda       -0.5273652E-03
   maximum displ.:     0.2389349 α      in ANC's #8, #22, #23, ...

........................................................................
.............................. CYCLE   24 ..............................
........................................................................
   1   -209.4987234 -0.209499E+03  0.185E-02    0.07       0.0  T
   2   -209.4208846  0.778388E-01  0.369E-01    0.15       1.0  T
   3   -209.4939012 -0.730167E-01  0.874E-02    0.07       1.0  T
   4   -209.4911392  0.276206E-02  0.109E-01    0.07       1.0  T
   5   -209.4988425 -0.770333E-02  0.929E-03    0.08       1.0  T
   6   -209.4988748 -0.322710E-04  0.616E-03    0.08       1.5  T
   7   -209.4988789 -0.411163E-05  0.588E-03    0.08       1.5  T
   8   -209.4988605  0.184245E-04  0.749E-03    0.08       1.2  T
   9   -209.4988940 -0.335034E-04  0.270E-03    0.08       3.3  T
  10   -209.4988944 -0.410148E-06  0.266E-03    0.08       3.4  T
  11   -209.4988985 -0.409708E-05  0.415E-04    0.08      21.8  T
  12   -209.4988983  0.147319E-06  0.652E-04    0.08      13.9  T
  13   -209.4988984 -0.105125E-06  0.500E-04    0.08      18.1  T
  14   -209.4988986 -0.135838E-06  0.570E-05    0.08     158.7  T
  15   -209.4988986 -0.166020E-08  0.138E-05    0.08     654.0  T
     SCC iter.                  ...        0 min,  0.809 sec
     gradient                   ...        0 min,  0.442 sec
 * total energy  :  -206.2374295 Eh     change       -0.2443098E-03 Eh
   gradient norm :     0.0077576 Eh/α   predicted    -0.2944849E-03 (  20.54%)
   displ. norm   :     0.1485260 α      lambda       -0.1786156E-03
   maximum displ.:     0.1139779 α      in ANC's #8, #20, #22, ...

........................................................................
.............................. CYCLE   25 ..............................
........................................................................
   1   -209.4991218 -0.209499E+03  0.304E-03    0.08       0.0  T
   2   -209.4933887  0.573314E-02  0.101E-01    0.09       1.0  T
   3   -209.4986145 -0.522581E-02  0.287E-02    0.07       1.0  T
   4   -209.4974991  0.111538E-02  0.501E-02    0.07       1.0  T
   5   -209.4991103 -0.161115E-02  0.508E-03    0.07       1.8  T
   6   -209.4990908  0.195271E-04  0.711E-03    0.08       1.3  T
   7   -209.4991046 -0.138090E-04  0.573E-03    0.07       1.6  T
   8   -209.4991143 -0.974319E-05  0.433E-03    0.08       2.1  T
   9   -209.4991243 -0.100391E-04  0.164E-03    0.08       5.5  T
  10   -209.4991257 -0.133614E-05  0.495E-04    0.08      18.3  T
  11   -209.4991258 -0.132886E-06  0.140E-04    0.08      64.8  T
  12   -209.4991258 -0.575889E-08  0.105E-04    0.08      86.4  T
     SCC iter.                  ...        0 min,  0.648 sec
     gradient                   ...        0 min,  0.446 sec
 * total energy  :  -206.2375718 Eh     change       -0.1423187E-03 Eh
   gradient norm :     0.0059802 Eh/α   predicted    -0.9127806E-04 ( -35.86%)
   displ. norm   :     0.2176458 α      lambda       -0.3214361E-03
   maximum displ.:     0.1633772 α      in ANC's #8, #20, #9, ...

........................................................................
.............................. CYCLE   26 ..............................
........................................................................
   1   -209.4995876 -0.209500E+03  0.436E-03    0.08       0.0  T
   2   -209.4738859  0.257016E-01  0.213E-01    0.05       1.0  T
   3   -209.4993603 -0.254744E-01  0.202E-02    0.07       1.0  T
   4   -209.4615826  0.377778E-01  0.240E-01    0.06       1.0  T
   5   -209.4995195 -0.379370E-01  0.111E-02    0.07       1.0  T
   6   -209.4994045  0.115028E-03  0.167E-02    0.07       1.0  T
   7   -209.4995368 -0.132266E-03  0.977E-03    0.07       1.0  T
   8   -209.4995609 -0.241464E-04  0.752E-03    0.07       1.2  T
   9   -209.4995905 -0.295699E-04  0.377E-03    0.07       2.4  T
  10   -209.4995962 -0.575438E-05  0.209E-03    0.08       4.3  T
  11   -209.4995979 -0.167241E-05  0.120E-03    0.08       7.5  T
  12   -209.4995986 -0.740518E-06  0.377E-04    0.08      24.0  T
  13   -209.4995987 -0.748028E-07  0.118E-04    0.08      76.6  T
  14   -209.4995987 -0.280957E-08  0.101E-04    0.08      89.4  T
     SCC iter.                  ...        0 min,  0.757 sec
     gradient                   ...        0 min,  0.444 sec
 * total energy  :  -206.2377729 Eh     change       -0.2011649E-03 Eh
   gradient norm :     0.0031021 Eh/α   predicted    -0.1683331E-03 ( -16.32%)
   displ. norm   :     0.2108549 α      lambda       -0.1697027E-03
   maximum displ.:     0.1622254 α      in ANC's #8, #20, #22, ...

........................................................................
.............................. CYCLE   27 ..............................
........................................................................
   1   -209.4991663 -0.209499E+03  0.249E-03    0.08       0.0  T
   2   -209.4942719  0.489435E-02  0.925E-02    0.06       1.0  T
   3   -209.4986532 -0.438123E-02  0.290E-02    0.07       1.0  T
   4   -209.4977012  0.951977E-03  0.475E-02    0.07       1.0  T
   5   -209.4990976 -0.139640E-02  0.114E-02    0.07       1.0  T
   6   -209.4991399 -0.423204E-04  0.723E-03    0.07       1.3  T
   7   -209.4991424 -0.249380E-05  0.693E-03    0.07       1.3  T
   8   -209.4991385  0.390093E-05  0.706E-03    0.07       1.3  T
   9   -209.4991642 -0.257426E-04  0.315E-03    0.07       2.9  T
  10   -209.4991695 -0.522335E-05  0.843E-04    0.08      10.7  T
  11   -209.4991698 -0.361362E-06  0.334E-04    0.08      27.1  T
  12   -209.4991698  0.585982E-08  0.346E-04    0.08      26.2  T
  13   -209.4991699 -0.441613E-07  0.230E-04    0.08      39.3  T
  14   -209.4991699 -0.206940E-07  0.137E-04    0.08      66.1  T
  15   -209.4991699 -0.101429E-07  0.478E-05    0.08     189.6  T
     SCC iter.                  ...        0 min,  0.811 sec
     gradient                   ...        0 min,  0.444 sec
 * total energy  :  -206.2379082 Eh     change       -0.1352499E-03 Eh
   gradient norm :     0.0040612 Eh/α   predicted    -0.8862516E-04 ( -34.47%)
   displ. norm   :     0.2350183 α      lambda       -0.1633071E-03
   maximum displ.:     0.1804495 α      in ANC's #8, #20, #9, ...

........................................................................
.............................. CYCLE   28 ..............................
........................................................................
   1   -209.4986566 -0.209499E+03  0.226E-03    0.07       0.0  T
   2   -209.4977129  0.943774E-03  0.407E-02    0.07       1.0  T
   3   -209.4985648 -0.851926E-03  0.127E-02    0.07       1.0  T
   4   -209.4903762  0.818858E-02  0.112E-01    0.07       1.0  T
   5   -209.4985403 -0.816407E-02  0.145E-02    0.07       1.0  T
   6   -209.4986479 -0.107642E-03  0.450E-03    0.07       2.0  T
   7   -209.4986360  0.119066E-04  0.638E-03    0.07       1.4  T
   8   -209.4986479 -0.118763E-04  0.441E-03    0.07       2.1  T
   9   -209.4986430  0.493767E-05  0.488E-03    0.07       1.9  T
  10   -209.4986574 -0.144678E-04  0.150E-03    0.07       6.0  T
  11   -209.4986589 -0.148298E-05  0.338E-04    0.08      26.8  T
  12   -209.4986590 -0.697765E-07  0.142E-04    0.08      63.6  T
  13   -209.4986590 -0.581400E-08  0.109E-04    0.08      83.4  T
     SCC iter.                  ...        0 min,  0.703 sec
     gradient                   ...        0 min,  0.444 sec
 * total energy  :  -206.2380496 Eh     change       -0.1413986E-03 Eh
   gradient norm :     0.0035342 Eh/α   predicted    -0.8616571E-04 ( -39.06%)
   displ. norm   :     0.2615755 α      lambda       -0.1666959E-03
   maximum displ.:     0.2013061 α      in ANC's #8, #20, #9, ...

........................................................................
.............................. CYCLE   29 ..............................
........................................................................
   1   -209.4984082 -0.209498E+03  0.355E-03    0.07       0.0  T
   2   -209.4944661  0.394206E-02  0.839E-02    0.09       1.0  T
   3   -209.4977558 -0.328967E-02  0.333E-02    0.07       1.0  T
   4   -209.4883900  0.936579E-02  0.124E-01    0.06       1.0  T
   5   -209.4983474 -0.995735E-02  0.108E-02    0.07       1.0  T
   6   -209.4984084 -0.609835E-04  0.280E-03    0.07       3.2  T
   7   -209.4983894  0.189261E-04  0.632E-03    0.07       1.4  T
   8   -209.4983861  0.329330E-05  0.642E-03    0.07       1.4  T
   9   -209.4984060 -0.198583E-04  0.338E-03    0.07       2.7  T
  10   -209.4984123 -0.633664E-05  0.904E-04    0.07      10.0  T
  11   -209.4984128 -0.492055E-06  0.308E-04    0.07      29.4  T
  12   -209.4984129 -0.579047E-07  0.119E-04    0.07      76.1  T
  13   -209.4984129  0.343172E-08  0.142E-04    0.07      63.8  T
     SCC iter.                  ...        0 min,  0.701 sec
     gradient                   ...        0 min,  0.444 sec
 * total energy  :  -206.2381946 Eh     change       -0.1450512E-03 Eh
   gradient norm :     0.0025268 Eh/α   predicted    -0.8905581E-04 ( -38.60%)
   displ. norm   :     0.2557691 α      lambda       -0.1396383E-03
   maximum displ.:     0.1964005 α      in ANC's #8, #20, #9, ...

........................................................................
.............................. CYCLE   30 ..............................
........................................................................
   1   -209.4985118 -0.209499E+03  0.543E-03    0.07       0.0  T
   2   -209.4819477  0.165641E-01  0.172E-01    0.10       1.0  T
   3   -209.4982928 -0.163451E-01  0.200E-02    0.07       1.0  T
   4   -209.4812553  0.170375E-01  0.162E-01    0.06       1.0  T
   5   -209.4984668 -0.172114E-01  0.952E-03    0.07       1.0  T
   6   -209.4985151 -0.483649E-04  0.405E-03    0.07       2.2  T
   7   -209.4985120  0.316830E-05  0.472E-03    0.07       1.9  T
   8   -209.4985160 -0.404016E-05  0.372E-03    0.07       2.4  T
   9   -209.4985194 -0.342478E-05  0.297E-03    0.07       3.0  T
  10   -209.4985250 -0.555976E-05  0.624E-04    0.07      14.5  T
  11   -209.4985252 -0.218700E-06  0.746E-05    0.07     121.3  T
  12   -209.4985252 -0.581224E-10  0.733E-05    0.07     123.5  T
     SCC iter.                  ...        0 min,  0.650 sec
     gradient                   ...        0 min,  0.441 sec
 * total energy  :  -206.2383171 Eh     change       -0.1224795E-03 Eh
   gradient norm :     0.0021307 Eh/α   predicted    -0.7438890E-04 ( -39.26%)
   displ. norm   :     0.2311257 α      lambda       -0.1092701E-03
   maximum displ.:     0.1769623 α      in ANC's #8, #20, #18, ...

........................................................................
.............................. CYCLE   31 ..............................
........................................................................
   1   -209.4982846 -0.209498E+03  0.677E-03    0.07       0.0  T
   2   -209.4715824  0.267022E-01  0.218E-01    0.12       1.0  T
   3   -209.4981821 -0.265997E-01  0.147E-02    0.07       1.0  T
   4   -209.4795254  0.186567E-01  0.169E-01    0.06       1.0  T
   5   -209.4982413 -0.187159E-01  0.100E-02    0.07       1.0  T
   6   -209.4982971 -0.557653E-04  0.414E-03    0.07       2.2  T
   7   -209.4982958  0.131298E-05  0.441E-03    0.07       2.1  T
   8   -209.4983011 -0.534830E-05  0.305E-03    0.07       3.0  T
   9   -209.4983040 -0.283225E-05  0.224E-03    0.07       4.0  T
  10   -209.4983070 -0.301704E-05  0.767E-04    0.07      11.8  T
  11   -209.4983073 -0.322756E-06  0.187E-04    0.07      48.4  T
  12   -209.4983073 -0.202518E-07  0.756E-05    0.07     119.8  T
     SCC iter.                  ...        0 min,  0.649 sec
     gradient                   ...        0 min,  0.443 sec
 * total energy  :  -206.2384143 Eh     change       -0.9719302E-04 Eh
   gradient norm :     0.0020299 Eh/α   predicted    -0.5755706E-04 ( -40.78%)
   displ. norm   :     0.2048145 α      lambda       -0.8644041E-04
   maximum displ.:     0.1564165 α      in ANC's #8, #20, #18, ...

........................................................................
.............................. CYCLE   32 ..............................
........................................................................
   1   -209.4977878 -0.209498E+03  0.649E-03    0.07       0.0  T
   2   -209.4718386  0.259492E-01  0.215E-01    0.11       1.0  T
   3   -209.4977028 -0.258642E-01  0.133E-02    0.07       1.0  T
   4   -209.4756894  0.220134E-01  0.183E-01    0.06       1.0  T
   5   -209.4977839 -0.220944E-01  0.622E-03    0.07       1.5  T
   6   -209.4977986 -0.147749E-04  0.411E-03    0.07       2.2  T
   7   -209.4977961  0.258165E-05  0.453E-03    0.07       2.0  T
   8   -209.4977954  0.672540E-06  0.448E-03    0.07       2.0  T
   9   -209.4978086 -0.131970E-04  0.104E-03    0.07       8.7  T
  10   -209.4978089 -0.309686E-06  0.751E-04    0.07      12.0  T
  11   -209.4978092 -0.289352E-06  0.261E-04    0.07      34.7  T
  12   -209.4978092 -0.429985E-07  0.381E-05    0.07     237.6  T
  13   -209.4978092 -0.344500E-09  0.343E-05    0.07     264.2  T
     SCC iter.                  ...        0 min,  0.704 sec
     gradient                   ...        0 min,  0.444 sec
 * total energy  :  -206.2384917 Eh     change       -0.7737101E-04 Eh
   gradient norm :     0.0017889 Eh/α   predicted    -0.4503551E-04 ( -41.79%)
   displ. norm   :     0.2737839 α      lambda       -0.6944263E-04
   maximum displ.:     0.2092926 α      in ANC's #8, #5, #18, ...

........................................................................
.............................. CYCLE   33 ..............................
........................................................................
   1   -209.4965228 -0.209497E+03  0.819E-03    0.07       0.0  T
   2   -209.4608671  0.356556E-01  0.252E-01    0.12       1.0  T
   3   -209.4964482 -0.355810E-01  0.138E-02    0.07       1.0  T
   4   -209.4918502  0.459799E-02  0.844E-02    0.07       1.0  T
   5   -209.4961330 -0.428280E-02  0.254E-02    0.07       1.0  T
   6   -209.4965472 -0.414267E-03  0.398E-03    0.07       2.3  T
   7   -209.4965401  0.717173E-05  0.512E-03    0.07       1.8  T
   8   -209.4965342  0.588976E-05  0.571E-03    0.07       1.6  T
   9   -209.4965553 -0.210960E-04  0.154E-03    0.07       5.9  T
  10   -209.4965565 -0.119024E-05  0.752E-04    0.07      12.0  T
  11   -209.4965568 -0.311608E-06  0.116E-04    0.07      78.0  T
  12   -209.4965568 -0.393896E-08  0.849E-05    0.07     106.7  T
     SCC iter.                  ...        0 min,  0.653 sec
     gradient                   ...        0 min,  0.444 sec
 * total energy  :  -206.2385798 Eh     change       -0.8807847E-04 Eh
   gradient norm :     0.0015195 Eh/α   predicted    -0.3587938E-04 ( -59.26%)
   displ. norm   :     0.2027630 α      lambda       -0.4388592E-04
   maximum displ.:     0.1569129 α      in ANC's #8, #5, #18, ...

........................................................................
.............................. CYCLE   34 ..............................
........................................................................
   1   -209.4955101 -0.209496E+03  0.372E-03    0.07       0.0  T
   2   -209.4857021  0.980800E-02  0.132E-01    0.09       1.0  T
   3   -209.4950495 -0.934735E-02  0.268E-02    0.07       1.0  T
   4   -209.4940709  0.978556E-03  0.470E-02    0.07       1.0  T
   5   -209.4955106 -0.143962E-02  0.316E-03    0.07       2.9  T
   6   -209.4955149 -0.432910E-05  0.178E-03    0.07       5.1  T
   7   -209.4955096  0.527948E-05  0.335E-03    0.07       2.7  T
   8   -209.4955085  0.105844E-05  0.351E-03    0.07       2.6  T
   9   -209.4955165 -0.798486E-05  0.843E-04    0.07      10.7  T
  10   -209.4955169 -0.377428E-06  0.296E-04    0.07      30.6  T
  11   -209.4955169 -0.435526E-07  0.106E-04    0.07      85.7  T
  12   -209.4955170 -0.566700E-08  0.507E-05    0.07     178.6  T
     SCC iter.                  ...        0 min,  0.655 sec
     gradient                   ...        0 min,  0.444 sec
 * total energy  :  -206.2386384 Eh     change       -0.5866351E-04 Eh
   gradient norm :     0.0014722 Eh/α   predicted    -0.2234443E-04 ( -61.91%)
   displ. norm   :     0.1796441 α      lambda       -0.3865468E-04
   maximum displ.:     0.1375299 α      in ANC's #8, #5, #18, ...

........................................................................
.............................. CYCLE   35 ..............................
........................................................................
   1   -209.4948625 -0.209495E+03  0.147E-03    0.07       0.0  T
   2   -209.4935250  0.133751E-02  0.487E-02    0.08       1.0  T
   3   -209.4946390 -0.111405E-02  0.185E-02    0.07       1.0  T
   4   -209.4946083  0.306911E-04  0.198E-02    0.07       1.0  T
   5   -209.4948628 -0.254482E-03  0.118E-03    0.07       7.7  T
   6   -209.4948633 -0.452960E-06  0.792E-04    0.07      11.4  T
   7   -209.4948628  0.493978E-06  0.112E-03    0.07       8.1  T
   8   -209.4948608  0.196528E-05  0.200E-03    0.07       4.5  T
   9   -209.4948636 -0.276959E-05  0.283E-04    0.07      31.9  T
  10   -209.4948636 -0.447856E-07  0.103E-04    0.07      88.0  T
  11   -209.4948636 -0.726928E-08  0.126E-05    0.07     716.4  T
     SCC iter.                  ...        0 min,  0.599 sec
     gradient                   ...        0 min,  0.441 sec
[...]
   120C    -0.02530 -0.02699   1.105  2.921  0.000
   121C    -0.01893 -0.01967   1.073  2.945  0.000
   122C    -0.02530 -0.02699   1.105  2.921  0.000

Wiberg/Mayer (AO) data.
largest (>0.10) Wiberg bond orders for each atom

 ---------------------------------------------------------------------------
     #   Z sym  total        # sym  WBO       # sym  WBO       # sym  WBO
 ---------------------------------------------------------------------------
     1  26 Fe   3.107 --     7 N    0.663    37 N    0.662    25 N    0.658
                            18 N    0.657
     2   6 C    3.924 --    36 C    1.363     3 C    1.363    38 H    0.971
     3   6 C    3.928 --     2 C    1.363     7 N    1.210     4 C    1.174
     4   6 C    3.959 --     5 C    1.648     3 C    1.174    39 H    0.975
     5   6 C    3.963 --     4 C    1.648     6 C    1.175    40 H    0.973
     6   6 C    3.923 --     8 C    1.316     7 N    1.223     5 C    1.175
     7   7 N    3.377 --     6 C    1.223     3 C    1.210     1 Fe   0.663
     8   6 C    3.929 --    15 C    1.327     6 C    1.316     9 C    1.029
     9   6 C    3.982 --    10 C    1.749    14 C    1.106     8 C    1.029
    10   6 C    3.942 --     9 C    1.749    11 C    1.015    41 H    0.971
    11   6 C    3.957 --    10 C    1.015    42 H    0.974    43 H    0.963
                            12 N    0.948
    12   7 N    3.242 --    13 C    1.172    11 C    0.948    44 H    0.926
                            14 C    0.119
    13   6 C    3.946 --    14 C    1.673    12 N    1.172    45 H    0.970
    14   6 C    3.943 --    13 C    1.673     9 C    1.106    46 H    0.973
                            12 N    0.119
    15   6 C    3.917 --     8 C    1.327    18 N    1.205    16 C    1.181
    16   6 C    3.958 --    17 C    1.638    15 C    1.181    47 H    0.972
    17   6 C    3.961 --    16 C    1.638    19 C    1.188    48 H    0.974
    18   7 N    3.380 --    19 C    1.241    15 C    1.205     1 Fe   0.657
    19   6 C    3.905 --    20 C    1.256    18 N    1.241    17 C    1.188
    20   6 C    3.929 --    19 C    1.256    21 C    1.256   120 C    1.195
    21   6 C    3.905 --    20 C    1.256    25 N    1.241    22 C    1.188
    22   6 C    3.961 --    23 C    1.638    21 C    1.188    49 H    0.974
    23   6 C    3.958 --    22 C    1.638    24 C    1.181    50 H    0.972
    24   6 C    3.917 --    26 C    1.329    25 N    1.204    23 C    1.181
    25   7 N    3.380 --    21 C    1.241    24 C    1.204     1 Fe   0.658
    26   6 C    3.929 --    24 C    1.329    33 C    1.316    27 C    1.028
    27   6 C    3.982 --    28 C    1.749    32 C    1.107    26 C    1.028
    28   6 C    3.941 --    27 C    1.749    29 C    1.015    51 H    0.971
    29   6 C    3.956 --    28 C    1.015    52 H    0.973    53 H    0.964
                            30 N    0.947
    30   7 N    3.245 --    31 C    1.175    29 C    0.947    54 H    0.925
                            32 C    0.120
    31   6 C    3.946 --    32 C    1.670    30 N    1.175    55 H    0.970
    32   6 C    3.942 --    31 C    1.670    27 C    1.107    56 H    0.973
                            30 N    0.120
    33   6 C    3.923 --    26 C    1.316    37 N    1.224    34 C    1.175
    34   6 C    3.963 --    35 C    1.648    33 C    1.175    57 H    0.974
    35   6 C    3.960 --    34 C    1.648    36 C    1.174    58 H    0.975
    36   6 C    3.928 --     2 C    1.363    37 N    1.210    35 C    1.174
    37   7 N    3.376 --    33 C    1.224    36 C    1.210     1 Fe   0.662
    38   1 H    1.001 --     2 C    0.971
    39   1 H    0.998 --     4 C    0.975
    40   1 H    1.006 --     5 C    0.973
    41   1 H    1.003 --    10 C    0.971
    42   1 H    1.014 --    11 C    0.974
    43   1 H    1.002 --    11 C    0.963
    44   1 H    0.961 --    12 N    0.926
    45   1 H    1.001 --    13 C    0.970
    46   1 H    1.003 --    14 C    0.973
    47   1 H    1.005 --    16 C    0.972
    48   1 H    1.002 --    17 C    0.974
    49   1 H    1.002 --    22 C    0.974
    50   1 H    1.005 --    23 C    0.972
    51   1 H    1.003 --    28 C    0.971
    52   1 H    1.014 --    29 C    0.973
    53   1 H    1.002 --    29 C    0.964
    54   1 H    0.961 --    30 N    0.925
    55   1 H    1.001 --    31 C    0.970
    56   1 H    1.003 --    32 C    0.973
    57   1 H    1.006 --    34 C    0.974
    58   1 H    0.998 --    35 C    0.975
    59  26 Fe   3.107 --    65 N    0.663    95 N    0.662    83 N    0.658
                            76 N    0.657
    60   6 C    3.924 --    94 C    1.363    61 C    1.363    96 H    0.971
    61   6 C    3.928 --    60 C    1.363    65 N    1.210    62 C    1.174
    62   6 C    3.959 --    63 C    1.648    61 C    1.174    97 H    0.975
    63   6 C    3.963 --    62 C    1.648    64 C    1.175    98 H    0.973
    64   6 C    3.923 --    66 C    1.316    65 N    1.223    63 C    1.175
    65   7 N    3.377 --    64 C    1.223    61 C    1.210    59 Fe   0.663
    66   6 C    3.929 --    73 C    1.327    64 C    1.316    67 C    1.029
    67   6 C    3.982 --    68 C    1.749    72 C    1.106    66 C    1.029
    68   6 C    3.942 --    67 C    1.749    69 C    1.015    99 H    0.971
    69   6 C    3.957 --    68 C    1.015   100 H    0.974   101 H    0.963
                            70 N    0.948
    70   7 N    3.242 --    71 C    1.172    69 C    0.948   102 H    0.926
                            72 C    0.119
    71   6 C    3.946 --    72 C    1.673    70 N    1.172   103 H    0.970
    72   6 C    3.943 --    71 C    1.673    67 C    1.106   104 H    0.973
                            70 N    0.119
    73   6 C    3.917 --    66 C    1.327    76 N    1.205    74 C    1.181
    74   6 C    3.958 --    75 C    1.638    73 C    1.181   105 H    0.972
    75   6 C    3.961 --    74 C    1.638    77 C    1.188   106 H    0.974
    76   7 N    3.380 --    77 C    1.240    73 C    1.205    59 Fe   0.657
    77   6 C    3.905 --    78 C    1.256    76 N    1.240    75 C    1.188
    78   6 C    3.929 --    77 C    1.256    79 C    1.256   122 C    1.195
    79   6 C    3.905 --    78 C    1.256    83 N    1.241    80 C    1.188
    80   6 C    3.961 --    81 C    1.638    79 C    1.188   107 H    0.974
    81   6 C    3.958 --    80 C    1.638    82 C    1.181   108 H    0.972
    82   6 C    3.917 --    84 C    1.329    83 N    1.204    81 C    1.181
    83   7 N    3.380 --    79 C    1.241    82 C    1.204    59 Fe   0.658
    84   6 C    3.929 --    82 C    1.329    91 C    1.316    85 C    1.028
    85   6 C    3.982 --    86 C    1.749    90 C    1.107    84 C    1.028
    86   6 C    3.941 --    85 C    1.749    87 C    1.015   109 H    0.971
    87   6 C    3.956 --    86 C    1.015   110 H    0.973   111 H    0.964
                            88 N    0.947
    88   7 N    3.245 --    89 C    1.175    87 C    0.947   112 H    0.925
                            90 C    0.120
    89   6 C    3.946 --    90 C    1.670    88 N    1.175   113 H    0.970
    90   6 C    3.942 --    89 C    1.670    85 C    1.107   114 H    0.973
                            88 N    0.120
    91   6 C    3.923 --    84 C    1.316    95 N    1.224    92 C    1.175
    92   6 C    3.963 --    93 C    1.648    91 C    1.175   115 H    0.974
    93   6 C    3.960 --    92 C    1.648    94 C    1.174   116 H    0.975
    94   6 C    3.928 --    60 C    1.363    95 N    1.210    93 C    1.174
    95   7 N    3.376 --    91 C    1.224    94 C    1.210    59 Fe   0.662
    96   1 H    1.001 --    60 C    0.971
    97   1 H    0.998 --    62 C    0.975
    98   1 H    1.006 --    63 C    0.973
    99   1 H    1.003 --    68 C    0.971
   100   1 H    1.014 --    69 C    0.974
   101   1 H    1.002 --    69 C    0.963
   102   1 H    0.961 --    70 N    0.926
   103   1 H    1.001 --    71 C    0.970
   104   1 H    1.003 --    72 C    0.973
   105   1 H    1.005 --    74 C    0.972
   106   1 H    1.002 --    75 C    0.974
   107   1 H    1.002 --    80 C    0.974
   108   1 H    1.005 --    81 C    0.972
   109   1 H    1.003 --    86 C    0.971
   110   1 H    1.014 --    87 C    0.973
   111   1 H    1.002 --    87 C    0.964
   112   1 H    0.961 --    88 N    0.925
   113   1 H    1.001 --    89 C    0.970
   114   1 H    1.003 --    90 C    0.973
   115   1 H    1.006 --    92 C    0.974
   116   1 H    0.998 --    93 C    0.975
   117   6 C    3.921 --   118 C    2.357   121 C    1.342   120 C    0.189
   118   6 C    3.921 --   117 C    2.357   119 C    1.342   122 C    0.189
   119   6 C    3.930 --   120 C    2.439   118 C    1.342
   120   6 C    3.884 --   119 C    2.439    20 C    1.195   117 C    0.189
   121   6 C    3.930 --   122 C    2.439   117 C    1.342
   122   6 C    3.884 --   121 C    2.439    78 C    1.195   118 C    0.189
 ---------------------------------------------------------------------------

Topologies differ in total number of bonds
Writing topology from bond orders to xtbtopo.mol

 dipole moment from electron density (au)
     X       Y       Z   
   0.0005   0.0067  -0.0680  total (Debye):    0.174

           -------------------------------------------------
          |                Geometry Summary                 |
           -------------------------------------------------

      molecular mass/u    :     1114.8128083
   center of mass at/Å    :       20.6450845      -0.0006017       0.0029073
  moments of inertia/u·Å² :        0.1729041E+05   0.7064442E+05   0.8731232E+05
rotational constants/cm⁻¹ :        0.9749700E-03   0.2386265E-03   0.1930728E-03

 * 117 selected distances

     #   Z          #   Z                                           value/Å
     2   6 C        3   6 C                                       1.3799429
     3   6 C        4   6 C                                       1.4317790
     4   6 C        5   6 C                                       1.3541234
     5   6 C        6   6 C                                       1.4348803
     3   6 C        7   7 N                                       1.3702714
     6   6 C        7   7 N                                       1.3693232
     6   6 C        8   6 C                                       1.3907539
     9   6 C       10   6 C                                       1.3432895
    11   6 C       12   7 N                                       1.4635994
    12   7 N       13   6 C                                       1.3669643
    13   6 C       14   6 C                                       1.3466015
     8   6 C       15   6 C                                       1.3891400
    15   6 C       16   6 C                                       1.4326748
    16   6 C       17   6 C                                       1.3549525
    15   6 C       18   7 N                                       1.3737547
    17   6 C       19   6 C                                       1.4293494
    18   7 N       19   6 C                                       1.3641653
    19   6 C       20   6 C                                       1.3991837
    20   6 C       21   6 C                                       1.3991359
    21   6 C       22   6 C                                       1.4293827
    22   6 C       23   6 C                                       1.3549449
    23   6 C       24   6 C                                       1.4327527
    21   6 C       25   7 N                                       1.3640376
    24   6 C       25   7 N                                       1.3739555
    24   6 C       26   6 C                                       1.3888392
    27   6 C       28   6 C                                       1.3431254
    29   6 C       30   7 N                                       1.4636800
    30   7 N       31   6 C                                       1.3658080
    31   6 C       32   6 C                                       1.3467784
    26   6 C       33   6 C                                       1.3906599
    33   6 C       34   6 C                                       1.4347828
    34   6 C       35   6 C                                       1.3541552
     2   6 C       36   6 C                                       1.3798593
    35   6 C       36   6 C                                       1.4318543
    33   6 C       37   7 N                                       1.3690732
    36   6 C       37   7 N                                       1.3702822
     2   6 C       38   1 H                                       1.0843184
     4   6 C       39   1 H                                       1.0786331
     5   6 C       40   1 H                                       1.0780325
    10   6 C       41   1 H                                       1.0836926
    11   6 C       42   1 H                                       1.0987884
    11   6 C       43   1 H                                       1.1058952
    12   7 N       44   1 H                                       1.0091176
    13   6 C       45   1 H                                       1.0852634
    14   6 C       46   1 H                                       1.0806670
    16   6 C       47   1 H                                       1.0779343
    17   6 C       48   1 H                                       1.0781923
    22   6 C       49   1 H                                       1.0782183
    23   6 C       50   1 H                                       1.0779520
    28   6 C       51   1 H                                       1.0837391
    29   6 C       52   1 H                                       1.0993097
    29   6 C       53   1 H                                       1.1055778
    30   7 N       54   1 H                                       1.0088946
    31   6 C       55   1 H                                       1.0852774
    32   6 C       56   1 H                                       1.0806342
    34   6 C       57   1 H                                       1.0780636
    35   6 C       58   1 H                                       1.0786460
    60   6 C       61   6 C                                       1.3799435
    61   6 C       62   6 C                                       1.4317771
    62   6 C       63   6 C                                       1.3541274
    63   6 C       64   6 C                                       1.4348782
    61   6 C       65   7 N                                       1.3702710
    64   6 C       65   7 N                                       1.3693116
    64   6 C       66   6 C                                       1.3907596
    67   6 C       68   6 C                                       1.3432909
    69   6 C       70   7 N                                       1.4635972
    70   7 N       71   6 C                                       1.3669796
    71   6 C       72   6 C                                       1.3466044
    66   6 C       73   6 C                                       1.3891377
    73   6 C       74   6 C                                       1.4326839
    74   6 C       75   6 C                                       1.3549514
    73   6 C       76   7 N                                       1.3737641
    75   6 C       77   6 C                                       1.4293494
    76   7 N       77   6 C                                       1.3642023
    77   6 C       78   6 C                                       1.3991373
    78   6 C       79   6 C                                       1.3991784
    79   6 C       80   6 C                                       1.4293806
    80   6 C       81   6 C                                       1.3549456
    81   6 C       82   6 C                                       1.4327428
    79   6 C       83   7 N                                       1.3640004
    82   6 C       83   7 N                                       1.3739493
    82   6 C       84   6 C                                       1.3888416
    85   6 C       86   6 C                                       1.3431234
    87   6 C       88   7 N                                       1.4636817 (max)
    88   7 N       89   6 C                                       1.3657903
    89   6 C       90   6 C                                       1.3467750
    84   6 C       91   6 C                                       1.3906555
    91   6 C       92   6 C                                       1.4347840
    92   6 C       93   6 C                                       1.3541536
    60   6 C       94   6 C                                       1.3798614
    93   6 C       94   6 C                                       1.4318575
    91   6 C       95   7 N                                       1.3690826
    94   6 C       95   7 N                                       1.3702807
    60   6 C       96   1 H                                       1.0843186
    62   6 C       97   1 H                                       1.0786344
    63   6 C       98   1 H                                       1.0780343
    68   6 C       99   1 H                                       1.0836919
    69   6 C      100   1 H                                       1.0987812
    69   6 C      101   1 H                                       1.1058952
    70   7 N      102   1 H                                       1.0091201
    71   6 C      103   1 H                                       1.0852640
    72   6 C      104   1 H                                       1.0806680
    74   6 C      105   1 H                                       1.0779372
    75   6 C      106   1 H                                       1.0781997
    80   6 C      107   1 H                                       1.0782109
    81   6 C      108   1 H                                       1.0779483
    86   6 C      109   1 H                                       1.0837394
    87   6 C      110   1 H                                       1.0993184
    87   6 C      111   1 H                                       1.1055735
    88   7 N      112   1 H                                       1.0088909 (min)
    89   6 C      113   1 H                                       1.0852761
    90   6 C      114   1 H                                       1.0806335
    92   6 C      115   1 H                                       1.0780625
    93   6 C      116   1 H                                       1.0786452
   117   6 C      118   6 C                                       1.2290772
   119   6 C      120   6 C                                       1.2244947
   121   6 C      122   6 C                                       1.2245111

 * 4 distinct bonds (by element types)

   Z      Z             #   av. dist./Å        max./Å        min./Å
   1 H    6 C          38     1.0852018     1.1058952     1.0779343
   6 C    6 C          51     1.3808621     1.4348803     1.2244947
   1 H    7 N           4     1.0090058     1.0091201     1.0088909
   6 C    7 N          24     1.3845761     1.4636817     1.3640004


optimized geometry written to: xtbopt.xyz


           -------------------------------------------------
          | TOTAL ENERGY             -206.238976892163 Eh   |
          | GRADIENT NORM               0.000571553618 Eh/α |
          | HOMO-LUMO GAP               0.073428491881 eV   |
           -------------------------------------------------

------------------------------------------------------------------------
 * finished run on 2022/07/29 at 19:52:32.115     
------------------------------------------------------------------------
 total:
 * wall-time:     0 d,  0 h,  1 min, 15.488 sec
 *  cpu-time:     0 d,  0 h,  1 min, 14.872 sec
 * ratio c/w:     0.992 speedup
 SCF:
 * wall-time:     0 d,  0 h,  0 min,  5.648 sec
 *  cpu-time:     0 d,  0 h,  0 min,  5.601 sec
 * ratio c/w:     0.992 speedup
 ANC optimizer:
 * wall-time:     0 d,  0 h,  1 min,  9.646 sec
 *  cpu-time:     0 d,  0 h,  1 min,  9.082 sec
 * ratio c/w:     0.992 speedup

