128
 energy: -243.126810426006 gnorm: 2.694551883618 xtb: 6.5.1 (b24c23e)
C           13.08832800000000       -0.62691300000000        0.56172700000000
C           13.77887300000000       -1.26678800000000       -0.68259600000000
C           13.12977900000000       -1.79509500000000       -1.77248400000000
C           14.12639800000000       -2.27022200000000       -2.66206300000000
C           15.35156400000000       -2.02741200000000       -2.08173300000000
N           15.12886700000000       -1.37715100000000       -0.89201200000000
C           16.77481000000000       -2.44009200000000       -2.65132300000000
C           16.82976800000000       -3.32015300000000       -3.85116400000000
C           17.39629200000000       -2.80931300000000       -5.03547400000000
C           17.45726900000000       -3.59743400000000       -6.17676300000000
O           18.01265300000000       -3.14038300000000       -7.33844800000000
C           16.93663700000000       -4.88249300000000       -6.15936100000000
O           16.98388000000000       -5.65556300000000       -7.29015300000000
C           16.34982800000000       -5.38943700000000       -5.00210800000000
O           15.81348900000000       -6.64662800000000       -5.01752900000000
C           16.29670800000000       -4.62076700000000       -3.84307400000000
C           17.90487800000000       -1.94787300000000       -2.06725900000000
C           19.22537000000000       -2.40622100000000       -2.44745800000000
C           20.12353100000000       -1.75580200000000       -1.71805000000000
N           18.08765000000000       -1.02104700000000       -1.07482700000000
C           19.42511000000000       -0.83708000000000       -0.84257900000000
C           20.08780600000000        0.00000000000000        0.00000000000000
C           19.29508500000000        1.04451500000000        0.89334800000000
C           19.78582500000000        2.24041800000000        1.38005800000000
C           18.76951500000000        2.83684100000000        2.16862500000000
C           17.67776800000000        1.99648100000000        2.12650900000000
N           17.99176800000000        0.93117800000000        1.31341900000000
C           16.29262200000000        2.20745000000000        2.86430800000000
C           16.21511300000000        3.23802600000000        3.92377000000000
C           16.68851200000000        2.98545700000000        5.22186200000000
C           16.60108300000000        3.98250800000000        6.18113800000000
O           17.05134000000000        3.75735800000000        7.45145600000000
C           16.05646500000000        5.21965000000000        5.85779200000000
O           15.97750200000000        6.19089100000000        6.82241300000000
C           15.59997600000000        5.47922800000000        4.56998400000000
O           15.08486700000000        6.72023300000000        4.31389900000000
C           15.67458600000000        4.49555700000000        3.59713900000000
C           15.20128800000000        1.49925100000000        2.46750200000000
C           13.91438700000000        1.59972800000000        3.13501100000000
C           13.05185200000000        0.80782200000000        2.50520700000000
C           13.75015800000000        0.18843200000000        1.40473800000000
N           15.04355600000000        0.60611500000000        1.44645500000000
H           12.03763100000000       -0.83542300000000        0.72805300000000
H           12.06015500000000       -1.83221700000000       -1.91447400000000
H           13.96530800000000       -2.74894400000000       -3.61642800000000
H           15.85514000000000       -1.00698700000000       -0.28742200000000
H           17.77821800000000       -1.78918600000000       -5.02348100000000
H           18.32661000000000       -2.24314000000000       -7.14579800000000
H           17.46977100000000       -5.09342100000000       -7.91790600000000
H           16.05497800000000       -6.98132400000000       -5.89821700000000
H           15.83470500000000       -5.01234100000000       -2.94022300000000
H           19.45342500000000       -3.17161000000000       -3.16629100000000
H           21.18342900000000       -1.91068900000000       -1.78174600000000
H           20.77070700000000        2.64388500000000        1.19273200000000
H           18.83119800000000        3.77249200000000        2.70464100000000
H           17.33347600000000        0.20653600000000        1.03193900000000
H           17.11794400000000        2.01638500000000        5.46040600000000
H           16.88142300000000        4.59820300000000        7.91595300000000
H           15.56236300000000        6.94416200000000        6.34634700000000
H           14.85138700000000        6.73634800000000        3.36633200000000
H           15.31913600000000        4.65941200000000        2.58172100000000
H           13.69010300000000        2.19369900000000        4.00242100000000
H           12.01752400000000        0.66088900000000        2.76153700000000
C           30.23058800000000       -0.70011500000000        0.46732900000000
C           29.54004300000000        0.34573000000000        1.39683900000000
C           30.18913600000000        1.26977800000000        2.17984600000000
C           29.19251800000000        2.01306200000000        2.86148000000000
C           27.96735100000000        1.51145300000000        2.48183800000000
N           28.19004800000000        0.52107700000000        1.55586200000000
C           26.54410500000000        1.96037000000000        3.02332800000000
C           26.48914800000000        2.90333800000000        4.17438700000000
C           25.92262300000000        4.17753600000000        3.97447300000000
C           25.86164700000000        5.08668400000000        5.02191000000000
O           25.30626200000000        6.32557900000000        4.86845800000000
C           26.38227800000000        4.74990700000000        6.26217600000000
O           26.33503500000000        5.65263500000000        7.29242300000000
C           26.96908800000000        3.50288300000000        6.46505400000000
O           27.50542600000000        3.20483400000000        7.68650100000000
C           27.02220800000000        2.57170600000000        5.43203800000000
C           25.41403700000000        1.51723600000000        2.40120000000000
C           24.09354500000000        1.77135600000000        2.93977000000000
C           23.19538500000000        1.22683900000000        2.12823900000000
N           25.23126600000000        0.78679000000000        1.25648300000000
C           23.89380600000000        0.60765400000000        1.02048900000000
C           23.23110900000000        0.00000000000000        0.00000000000000
C           24.02383000000000       -0.60518300000000       -1.23403300000000
C           23.53309000000000       -0.77884100000000       -2.51345200000000
C           24.54940000000000       -1.39409700000000       -3.28741500000000
C           25.64114800000000       -1.56251900000000       -2.46302800000000
N           25.32714800000000       -1.04024400000000       -1.22884300000000
C           27.02629300000000       -2.22456700000000       -2.85103400000000
C           27.10380300000000       -2.99410300000000       -4.11292100000000
C           26.63040400000000       -4.31420300000000       -4.19147300000000
C           26.71783200000000       -4.99505500000000       -5.39594900000000
O           26.26757500000000       -6.28142900000000       -5.49414100000000
C           27.26245100000000       -4.37389500000000       -6.51364000000000
O           27.34141400000000       -5.06634900000000       -7.69444900000000
C           27.71893900000000       -3.06201200000000       -6.44443800000000
O           28.23404900000000       -2.50503400000000       -7.58261600000000
C           27.64432900000000       -2.36468700000000       -5.24954300000000
C           28.11762800000000       -2.01656500000000       -2.06634600000000
C           29.40452900000000       -2.63804300000000       -2.32983900000000
C           30.26706400000000       -2.22521800000000       -1.40607300000000
C           29.56875700000000       -1.31359800000000       -0.53221700000000
N           28.27535900000000       -1.25001700000000       -0.94713500000000
H           31.28128400000000       -0.91311300000000        0.62786700000000
H           31.25876000000000        1.39805500000000        2.25114900000000
H           29.35360800000000        2.81819800000000        3.56272400000000
H           27.46377600000000        0.02767700000000        1.04683700000000
H           25.54069800000000        4.41988700000000        2.98347900000000
H           24.99230500000000        6.36236800000000        3.95150300000000
H           25.84914500000000        6.40057200000000        6.90426400000000
H           27.26393699999999        3.97446800000000        8.22991200000000
H           27.48421099999999        1.59979700000000        5.58651300000000
H           23.86549000000000        2.27700800000000        3.86001800000000
H           22.13548700000000        1.24997000000000        2.29410700000000
H           22.54820800000000       -0.49696700000000       -2.85757900000000
H           24.48771800000000       -1.68030000000000       -4.32705100000000
H           25.98543900000000       -0.94803000000000       -0.45694000000000
H           26.20097200000000       -4.78649300000000       -3.31229900000000
H           26.43749300000000       -6.52196800000000       -6.42415100000000
H           27.75655300000000       -4.41774000000000       -8.30548500000000
H           28.46752800000000       -1.58328800000000       -7.36232100000000
H           27.99977900000000       -1.34044700000000       -5.15544400000000
H           29.62881300000000       -3.33027000000000       -3.12105700000000
H           31.30139100000000       -2.51005700000000       -1.32758100000000
C           21.04849900000000        0.00000000000000        0.00000000000000
C           22.27041700000000        0.00000000000000        0.00000000000000
128
 energy: -243.744051626786 gnorm: 0.634613325793 xtb: 6.5.1 (b24c23e)
C           13.09808983978028       -0.63476456448384        0.54678740577941
C           13.77526484286866       -1.26144876490620       -0.67281709887291
C           13.13106247169382       -1.79733673773789       -1.77512419546596
C           14.12427069982177       -2.27084856581786       -2.66117314746343
C           15.36279917758160       -2.02980355382302       -2.08495839395266
N           15.12909307926728       -1.37763309801797       -0.89203358108721
C           16.75969235245368       -2.43472744309701       -2.64489002403014
C           16.82688703189134       -3.31815481621036       -3.84903261366684
C           17.39617620463846       -2.80913656076520       -5.03161552206692
C           17.45692626579251       -3.59637922814387       -6.17432552063267
O           18.01266757329334       -3.13946651740903       -7.33715488660440
C           16.93599637097591       -4.88309924808734       -6.15876001032171
O           16.98466600569155       -5.65443443480484       -7.28954947158839
C           16.34872789528024       -5.38966174131963       -4.99989522668505
O           15.81587132120975       -6.64444673824681       -5.01882043256681
C           16.29639138851439       -4.61796437630866       -3.84250681085962
C           17.90568446680440       -1.95052810123007       -2.06897355964316
C           19.22505220821727       -2.41024454349628       -2.45219502765743
C           20.12448979994184       -1.75498783249610       -1.71687598665403
N           18.07758523208138       -1.02117659753404       -1.07512268030487
C           19.37779386445379       -0.85319413782626       -0.86033412984207
C           19.91278079848508        0.01236397882425        0.01101437906022
C           19.27559284427038        1.04718998072636        0.89603755523490
C           19.78425011982937        2.24038843495212        1.38190934553143
C           18.77075939787576        2.83598256996103        2.16863220488305
C           17.66585415593683        1.99828247598157        2.13222743076535
N           17.98675552351020        0.93303172816651        1.31761283959424
C           16.30774876713527        2.20420155166976        2.85485585569753
C           16.21765858200077        3.23717484867949        3.92192647908669
C           16.68836753863384        2.98490644600517        5.21855181325139
C           16.60177185683662        3.98074877203746        6.18172430912155
O           17.05006276754104        3.75954843449296        7.44987884817232
C           16.05651711630490        5.21973116616986        5.85795779812516
O           15.97640090976824        6.19232327939593        6.82032810489760
C           15.60013576318878        5.47772986805480        4.56941810640800
O           15.08476499797819        6.71954570097542        4.31189643741634
C           15.67510252519009        4.49210538224689        3.59678562160697
C           15.19879956884234        1.49684246842590        2.46659399987114
C           13.91327868849906        1.60245117029890        3.13858851718232
C           13.04855142443878        0.80852494917969        2.50741740894231
C           13.75267306291404        0.18931555946438        1.40724464735871
N           15.04830355707812        0.60503390040884        1.44271959332057
H           12.04088746770707       -0.83591893915188        0.72446739600180
H           12.06091353923158       -1.83273606467523       -1.91514517368745
H           13.96473900090404       -2.74880998757869       -3.61597679231159
H           15.85484010815633       -1.00721533024737       -0.28762100039431
H           17.77818795176760       -1.79022950450433       -5.02425351749038
H           18.32734795852510       -2.24309230480676       -7.14810867945937
H           17.46951673383333       -5.09501667193064       -7.91987314496445
H           16.05368176836739       -6.98335293015280       -5.89835571490246
H           15.83528569517033       -5.01229279251936       -2.94128145650563
H           19.45277245307043       -3.17343689235730       -3.16850499277934
H           21.18530714067237       -1.90899754187252       -1.77953976987977
H           20.76974512229449        2.64341354752324        1.19265581848109
H           18.83177696226061        3.77192386207694        2.70421806268801
H           17.33388295744749        0.20753705925789        1.03257944184237
H           17.11752211045665        2.01733270816774        5.46043971916145
H           16.88208620224118        4.59736099032262        7.91743852130125
H           15.56309655058103        6.94426161544574        6.34897726512842
H           14.85100802362675        6.73798764957249        3.36788595464895
H           15.31938103538464        4.65999581190528        2.58280371284858
H           13.69108087710777        2.19566678110735        4.00421359509907
H           12.01569410521230        0.66013829849923        2.76124990716727
C           30.22082593586056       -0.68760032708277        0.47865271043634
C           29.54365102306470        0.33758817230288        1.38923328940539
C           30.18785261622894        1.27177691509756        2.18267447738572
C           29.19464514201289        2.01204418347122        2.86186526059555
C           27.95611593784791        1.51398139991381        2.48495720615470
N           28.18982209434178        0.52097799555910        1.55633441712395
C           26.55922268617857        1.95547512479715        3.01653078260599
C           26.49202894564692        2.90177107608044        4.17192126152537
C           25.92273888207557        4.17384285652937        3.97334145005462
C           25.86198964100523        5.08458593388647        5.02028160964971
O           25.30624743708455        6.32455470568156        4.86724835697540
C           26.38291872029695        4.74917389036414        6.26261358545338
O           26.33424906840031        5.65233138419558        7.29117984289696
C           26.97018801091929        3.50068403702520        6.46472071291169
O           27.50304374809742        3.20662772549056        7.68470999140851
C           27.02252454720833        2.57185452110745        5.42918225501792
C           25.41323065596134        1.51823562068940        2.40419840550648
C           24.09386291588171        1.77494217329607        2.94484612979744
C           23.19442610807820        1.22590461481123        2.12715811234824
N           25.24133073641022        0.78704415627329        1.25668223863313
C           23.94112221740334        0.62083840773110        1.04051604873729
C           23.40613490587683       -0.00758951273954       -0.01471679580410
C           24.04332232346295       -0.60712195193114       -1.23729325585378
C           23.53466498957764       -0.78064146852428       -2.51388429456156
C           24.54815569270184       -1.39431765180813       -3.28658525576361
C           25.65306177194814       -1.56760898435697       -2.46619653707150
N           25.33216026874581       -1.04384419841584       -1.23168245764024
C           27.01116627367175       -2.21622111170297       -2.84553468357734
C           27.10125735404393       -2.99252949206711       -4.11163785550569
C           26.63054840124459       -4.31113418579580       -4.19011562900036
C           26.71714318947998       -4.99606074755257       -5.39439105512627
O           26.26885224839759       -6.27935615885803       -5.49586983702455
C           27.26239878279883       -4.37403560740717       -6.51375992071756
O           27.34251516635925       -5.06397310152574       -7.69531732525343
C           27.71877936088040       -3.06183660004515       -6.44284615157421
O           28.23415100968031       -2.50326543049595       -7.58145170308628
C           27.64381249829799       -2.36520399743909       -5.24611195380291
C           28.12011638698322       -2.01628517254421       -2.06378716483062
C           29.40563728420214       -2.64083000749791       -2.33336722571618
C           30.27036441084436       -2.22718378195135       -1.40730414474314
C           29.56624195262476       -1.31580578500591       -0.53369677425339
N           28.27061154415889       -1.24666841557490       -0.94515805362359
H           31.27802765313061       -0.90976380139339        0.62923997359833
H           31.25800150169119        1.39857583260399        2.25181881102686
H           29.35417697692369        2.81779436608227        3.56248188298056
H           27.46407579095516        0.02781283416658        1.04710762471284
H           25.54072801161010        4.42037542420975        2.98468192405869
H           24.99156706543564        6.36461780247893        3.95203214050546
H           25.84939920843414        6.40208002278562        6.90629910579381
H           27.26523320941757        3.97409729453868        8.23191161107129
H           27.48363029864572        1.60083413553719        5.58672980019447
H           23.86614254934433        2.27869749651679        3.86233860807638
H           22.13360882942979        1.24825430659133        2.29191951495119
H           22.54916988788808       -0.49701060027082       -2.85710345208504
H           24.48713903242391       -1.68003183468048       -4.32639549123985
H           25.98503205867775       -0.94840105254660       -0.45806896477765
H           26.20139390456115       -4.78628970014063       -3.31322530016793
H           26.43682978965435       -6.52361636792355       -6.42370531815314
H           27.75581936167358       -4.42026278377128       -8.30623614249605
H           28.46790693043148       -1.58438502114255       -7.36429592497400
H           27.99953397247181       -1.34135026084746       -5.15627901019028
H           29.62783509367361       -3.33151615548276       -3.12340895350756
H           31.30322104086505       -2.50996586933496       -1.32678244036691
C           21.13111065055456        0.00578537089204        0.00557178007422
C           22.18780447359125       -0.00395607128637       -0.00699038251359
128
 energy: -243.902607234767 gnorm: 0.352412893482 xtb: 6.5.1 (b24c23e)
C           13.12370806495400       -0.64689749506110        0.52000288570717
C           13.77467789350294       -1.25483407359586       -0.66164983335776
C           13.13585635799568       -1.80281532910120       -1.77737650661881
C           14.12240730746087       -2.27357599973961       -2.65728583341437
C           15.37724875047120       -2.03265757065299       -2.08757550213982
N           15.13128771875529       -1.37840439335597       -0.89230310918997
C           16.72400965233020       -2.42653899021447       -2.63566848284101
C           16.81220115497898       -3.31000586322833       -3.84271981731285
C           17.39493078068569       -2.80801900916490       -5.02060316056950
C           17.45610622630688       -3.59328984300674       -6.16580623155253
O           18.01197132445353       -3.13799294032965       -7.33183072161735
C           16.93490474612946       -4.88149479349801       -6.15557157620450
O           16.98653508792063       -5.65209865370506       -7.28711342482787
C           16.34760106654478       -5.38738463992954       -4.99566515011681
O           15.82146984247860       -6.64107336104996       -5.02010954815618
C           16.29278697729523       -4.61117919372263       -3.84073887300816
C           17.89291249966294       -1.95945920552013       -2.07543088009823
C           19.22028885382425       -2.41741807046685       -2.46079582637398
C           20.11456103016899       -1.75494165182590       -1.71526245958321
N           18.02710640436543       -1.03229507355697       -1.08545571463847
C           19.30909219706493       -0.86911016273695       -0.87216786989757
C           19.78211675084465        0.03671966865525        0.02726728456152
C           19.23709022232714        1.04771783771925        0.89128176388923
C           19.77424677382612        2.23754052589462        1.38914632639142
C           18.77011065965351        2.83220288355143        2.17193887161381
C           17.64288345048420        2.00306171256598        2.14356513663965
N           17.96259887867462        0.93969602187745        1.32846635791532
C           16.33250556130930        2.19659362613486        2.83578338263773
C           16.22884647969173        3.23258288200413        3.91187532073409
C           16.68971630847309        2.98351571685056        5.21045491369225
C           16.60179466515800        3.97774578681196        6.17957438087669
O           17.04765071153539        3.76284099679009        7.44622423979319
C           16.05645796809564        5.21875288510394        5.85622212549312
O           15.97515991275431        6.19353854709130        6.81651489230285
C           15.60035543926632        5.47201920358065        4.56666126984708
O           15.08561983966450        6.71596764713218        4.30890919365042
C           15.67692480175223        4.48325194914329        3.59477332869233
C           15.19975418511629        1.49132934547439        2.46393872717673
C           13.91310433053881        1.60716062860800        3.14403484517301
C           13.04505133220900        0.80923303894537        2.50984595871228
C           13.76120256508191        0.18666128204441        1.40847476954740
N           15.05755369035342        0.60294934709905        1.43648675494865
H           12.05963215875382       -0.83825193431434        0.70572367535383
H           12.06491383028640       -1.83506269265952       -1.91794506962156
H           13.96224995439029       -2.74822642614423       -3.61380033513898
H           15.85554316187986       -1.00757218716139       -0.28791766681155
H           17.77817470000015       -1.79191504763450       -5.02492406365732
H           18.33001515692066       -2.24170217921800       -7.15509016104827
H           17.46845821146718       -5.09992904425468       -7.92583930787225
H           16.04974519365335       -6.98871528203228       -5.89885167086658
H           15.83604513736918       -5.01224707714945       -2.94303139238378
H           19.45053818984116       -3.17996426819727       -3.17709678077908
H           21.18326876713099       -1.90067010180143       -1.76980592255405
H           20.76179131646846        2.63952881231234        1.19295944607063
H           18.83456215418691        3.77013253275910        2.70279324078761
H           17.32430732496063        0.21031087501000        1.03737586203677
H           17.11690430609878        2.01906549880417        5.45996260481784
H           16.88371062797578        4.59562487378220        7.92182979450484
H           15.56403310730548        6.94735553753436        6.35572158318204
H           14.84896179083665        6.74321199990326        3.36977465502433
H           15.32027646885651        4.66103099177096        2.58479928767896
H           13.69525265311850        2.20283906645898        4.01010243544422
H           12.01038452495481        0.65765638156001        2.75968978934971
C           30.19520753231305       -0.66467951423623        0.49707187320274
C           29.54423780240782        0.32841933565072        1.38004667927169
C           30.18305886047371        1.27259422223727        2.18854136759171
C           29.19650830328512        2.00760032256349        2.86353899640475
C           27.94166648992810        1.51580560576097        2.48837296246547
N           28.18762763124716        0.52104708340002        1.55714867991199
C           26.59490556677554        1.94858255454287        3.00630433726641
C           26.50671468921262        2.89768558917527        4.16245748512334
C           25.92398450118307        4.16345536899710        3.96951735125947
C           25.86280951355265        5.07710401025049        5.01516856913890
O           25.30694373860793        6.31976490419794        4.86449557641730
C           26.38401047903913        4.74648518826283        6.26026595786548
O           26.33238010645660        5.65055349162710        7.28831133994227
C           26.97131470885868        3.49715415093563        6.46146216929351
O           27.49744532905014        3.20871596440608        7.68176386084930
C           27.02612887608013        2.57183166222916        5.42217036791729
C           25.42600282096723        1.52226628066989        2.41445597810863
C           24.09862643818026        1.78148623377126        2.95393495178567
C           23.20435474686284        1.22435340679381        2.12671159833556
N           25.29180948011985        0.79428391657062        1.27002332506136
C           24.00982375352003        0.62833716984792        1.05887707983341
C           23.53679883177502       -0.01726727143748       -0.04235198333541
C           24.08182497299346       -0.60238438877110       -1.23662032485151
C           23.54466847280607       -0.78835965112306       -2.51292763579133
C           24.54880461961859       -1.39846108929590       -3.28374766719031
C           25.67603227745137       -1.57740006289821       -2.47364802767636
N           25.35631663134026       -1.05269674038743       -1.24083900275532
C           26.98640968609475       -2.19964315769405       -2.83341820585995
C           27.09006928344540       -2.98393815206714       -4.10468846848896
C           26.62919952385106       -4.30363860280119       -4.18675284267311
C           26.71712049256942       -4.99472605665991       -5.39094729690985
O           26.27126434421369       -6.27499687198509       -5.49814889619659
C           27.26245781214907       -4.37259835567960       -6.51238041436779
O           27.34375622113148       -5.05997739191203       -7.69554528188929
C           27.71855987365178       -3.06058789640342       -6.43662892000737
O           28.23329615001406       -2.50126278790070       -7.57724250643269
C           27.64199031102144       -2.36545908060331       -5.23703613929757
C           28.11916163956839       -2.01508605933831       -2.05778661318108
C           29.40581152729060       -2.64493244392596       -2.33928451048859
C           30.27386430127023       -2.22935959483265       -1.40859463673063
C           29.55771253140629       -1.31765803410396       -0.53143228389154
N           28.26136153110798       -1.24115083055056       -0.94158744217659
H           31.25928313312954       -0.89219114226047        0.63616582914961
H           31.25400133960546        1.40070836725317        2.25476920582972
H           29.35666591453150        2.81583172749175        3.56137487241194
H           27.46337260997823        0.02801127058499        1.04752704409706
H           25.54074117759448        4.42060523929759        2.98648121090609
H           24.98889990100956        6.37172554731013        3.95242395035506
H           25.85045766684996        6.40663539874894        6.91254204574147
H           27.26916975567007        3.97324273461941        8.23722862958135
H           27.48287079822742        1.60254045046899        5.58712109077615
H           23.86837686543488        2.28539377187624        3.87079950931369
H           22.13564709218639        1.24090002969141        2.28143089861455
H           22.55712379245071       -0.49827186742159       -2.85341667212481
H           24.48435384880090       -1.67909785738007       -4.32430586270436
H           25.99460765658683       -0.95235588001442       -0.46194957515773
H           26.20201170358854       -4.78539622078432       -3.31478477739022
H           26.43520533848742       -6.52830158201154       -6.42311707532613
H           27.75488268576782       -4.42602469825149       -8.31091144851202
H           28.46995311593836       -1.58491385579124       -7.36982602448258
H           27.99863857051802       -1.34302518580923       -5.15777845687756
H           29.62366325373812       -3.33543383327032       -3.13182121643333