254
 energy: -486.290426131781 gnorm: 0.000366616699 xtb: 6.5.1 (b24c23e)
C           45.55827990580585       -0.11972337535400       -0.08682803265688
C           46.17727884152252       -1.32600495061343        0.21378148011648
C           45.53616191730386       -2.57335710570637        0.45672921052254
C           46.50320198203551       -3.49585513610801        0.73947555598447
C           47.76622411234455       -2.83861108437677        0.68885505499669
N           47.51983052076099       -1.53798914387273        0.35510371430738
C           49.03337319939428       -3.39205872626870        0.90997698142846
C           49.07790142144800       -4.82033801116360        1.29801322305097
C           49.77546181377653       -5.74312401690053        0.51171731084635
C           49.81880843752285       -7.07899905424167        0.86597474515104
C           49.16079338649980       -7.49743557059655        2.01913800259965
N           49.20236090468146       -8.89938892177986        2.39554909324601
O           49.83216739104500       -9.64698292864035        1.69208797391721
O           48.60425199021311       -9.22813720890377        3.38778265998600
C           48.46245227645893       -6.59550751864538        2.81691211810748
C           48.42257778715696       -5.26223338847247        2.45182066430059
C           50.24296055543759       -2.70179368902942        0.78833869360999
C           51.54195804939688       -3.27731026321101        1.08938446047106
C           52.45360217222883       -2.31675447388493        0.83311229421144
N           50.38577139510231       -1.40893097079558        0.38856808974676
C           51.70979715919241       -1.15326419634078        0.38983046915830
C           52.33729200506149        0.04822013690962        0.00359447194692
C           51.69346528037292        1.24239154069276       -0.37171202240677
C           52.32976588930390        2.44960933834509       -0.76431222779694
C           51.35722415503786        3.37978521335980       -1.00632905546355
C           50.09598867880994        2.76857423607475       -0.76212652871403
N           50.35063008485014        1.47502003124216       -0.39319365918294
C           48.82821066084030        3.34657741713398       -0.89829190591809
C           48.78635808969101        4.78124824635833       -1.26019410977096
C           48.14151474647980        5.19944258095771       -2.42874422698662
C           48.10143108725703        6.53910168571596       -2.76917045891832
C           48.70767371248510        7.47140550867962       -1.93177374274320
N           48.66728610623151        8.87965163549151       -2.28328276343245
O           48.09255877275955        9.18526829010338       -3.29651726292296
O           49.21233360844001        9.65543418418006       -1.54042015123215
C           49.35312238648769        7.07686548369011       -0.76319266346290
C           49.39188408118590        5.73432756150342       -0.43458833953159
C           47.61586353261125        2.67063626912238       -0.71850768952865
C           46.30454237745890        3.29423350824374       -0.81579912328433
C           45.40108597743171        2.31881173058322       -0.59515298507849
C           46.15886203588379        1.10457009277272       -0.34688005281185
N           47.48925889772892        1.35729298353207       -0.41739292537258
H           44.47364932208279       -0.14533176048711       -0.11442222523207
H           44.47070969438728       -2.73220119476033        0.41170047887709
H           46.36002776420204       -4.54234968503484        0.95416722475823
H           48.23932822024818       -0.83378100559399        0.22990468117058
H           50.27110303504253       -5.40777874439677       -0.39180646700844
H           50.35225640552646       -7.80146377630892        0.26002799998926
H           47.96293000401607       -6.94546121769510        3.71231615426441
H           47.89572870649436       -4.54841997594809        3.07436842732437
H           51.71184840477027       -4.27452583516610        1.46147031702775
H           53.52577197629750       -2.36243444144840        0.93665443772517
H           53.39641709719196        2.57943970102514       -0.85088824844547
H           51.49850256866537        4.39576600577332       -1.33693656629396
H           49.63238733501547        0.79242374497854       -0.17425059123389
H           47.68614985250307        4.46296144401908       -3.08038940029866
H           47.60974210127543        6.87148256695886       -3.67552290194193
H           49.81305829466467        7.82233736730905       -0.12566209164999
H           49.87825677016984        5.41690798580452        0.48050428563705
H           46.12432762667829        4.33875907773296       -1.01220892254191
H           44.32467508176390        2.38530733073710       -0.58352006868932
C           92.64026647286744        0.03945764173495       -0.14546911912448
C           92.02423042875870        1.22920698125064       -0.51097995296183
C           92.66896112739998        2.42247101049283       -0.94274198050446
C           91.70414208056630        3.35937523726937       -1.18226805221914
C           90.43875677180870        2.77068831417085       -0.89585974458704
N           90.68183837958874        1.48484265432012       -0.50708073089285
C           89.17262302679697        3.35766544042283       -1.01037114419914
C           89.13460256320027        4.78192362242920       -1.41450342972322
C           88.46145670237692        5.17085418861080       -2.57704787035869
C           88.42338731499302        6.50004856056334       -2.95667134881518
C           89.06189505888858        7.45094053386054       -2.16551128484648
N           89.02353856975631        8.84859085791004       -2.55806930093279
O           88.41944241482624        9.12959474943394       -3.56116402396861
O           89.59849595709660        9.64059748918128       -1.85613820879429
C           89.73719546291069        7.08540624606884       -1.00450881517772
C           89.77233465348286        5.75305982012026       -0.63587066175927
C           87.96007759318263        2.70430312250481       -0.77190373930769
C           86.66028578490851        3.34815607721919       -0.84516002499602
C           85.74675458560638        2.39701026948140       -0.56231695373008
N           87.81515028652215        1.39697618672885       -0.42301411265798
C           86.48998060959347        1.17929071209059       -0.30061120230069
C           85.86115431782432       -0.03608030433536        0.03618704115894
C           86.50228990888037       -1.24232894674215        0.37525377709940
C           85.86236601344012       -2.46723395307562        0.70208770096055
C           86.83282873141621       -3.38955082713760        0.97924912946604
C           88.09668232297400       -2.75199091156921        0.83685127185536
N           87.84511038712040       -1.45907199909091        0.46317610086692
C           89.36339243378505       -3.32466710601610        1.00106148243734
C           89.40319303295881       -4.73868375606234        1.43749315658751
C           90.02168921831696       -5.70715464019668        0.64012714843205
C           90.05743385635071       -7.03016842987995        1.04064348095013
C           89.47354247379376       -7.38908313088409        2.25231205569233
N           89.50761579995113       -8.77708901160127        2.67761699295020
O           90.05775413959240       -9.56830258399989        1.95530378931764
O           88.98224105650353       -9.05185453086182        3.72598443564790
C           88.85588112144616       -6.44062105150396        3.06266456544974
C           88.82119153723890       -5.12112980827118        2.65047101099169
C           90.57701483671255       -2.66339493073172        0.77998758763461
C           91.88756353674830       -3.25532430902522        1.00354572170912
C           92.79286917868744       -2.31206768815775        0.67642169005698
C           92.03721131158608       -1.14064140062298        0.26776762492484
N           90.70620174593220       -1.38586255927192        0.35265356157000
H           93.72483796803624        0.04385201431606       -0.18464693887384
H           93.73524314583703        2.53446768542538       -1.05652975566198
H           91.85005776540582        4.36666356757640       -1.53701444423278
H           89.96023543576875        0.81787526870333       -0.25464642042528
H           87.98055373394901        4.41959758737314       -3.19249679792362
H           87.90831536922839        6.80989232441570       -3.85800576962826
H           90.22254778099020        7.84507515731005       -0.40362117739475
H           90.28140940662972        5.45882303793717        0.27460101751769
H           86.49063023782045        4.38904681857051       -1.06759491700709
H           84.67350470279055        2.48814384835308       -0.51575945378406
H           84.79475097906567       -2.61591276297797        0.71505898356430
H           86.68815492472133       -4.42369550904630        1.24582830537514
H           88.56547371462293       -0.77101747887910        0.26972636377958
H           90.45944809194290       -5.41809213555943       -0.30815213078140
H           90.52816349740110       -7.78813070239782        0.42615417740504
H           88.41348325693025       -6.74451598281117        4.00375116121895
H           88.35619042127563       -4.37147383592802        3.28012096373128
H           92.06604735740112       -4.25158267492609        1.37464135673555
H           93.86940752080200       -2.36924004165797        0.70826718442741
C           54.96528990584518        0.07988031172562       -0.03101258248602
C           53.74333366153716        0.06915604684882       -0.00973584940397
C           56.31437128973533        0.08006572788045       -0.05113229682779
C           57.53652614974572        0.07047797612878       -0.06701990285772
C           68.42335464030928        0.01227160257502       -0.00070327013685
C           67.20086366213307        0.02230412286855       -0.01587703480187
C           69.77176480735335        0.00033756256632        0.00656858890970
C           70.99423388320062       -0.01846972672725        0.01090037511493
C           81.88332960021131       -0.09585239035531        0.02403104377561
C           80.66129726331893       -0.10473459819637        0.00795046992416
C           83.23275668785439       -0.08043479034718        0.03507024921596
C           84.45460432995731       -0.05847418749442        0.04121993343845
C           58.94173508863872        0.05410095077554       -0.07775244731351
C           59.57585676215299        1.06003938298554       -0.83177278405390
C           58.93441361045779        2.08919202590854       -1.56818224101785
C           59.90336465417743        2.82674120882548       -2.19188385843322
C           61.16514846483695        2.26334847800698       -1.85798881037596
N           60.91732287313346        1.20697348586568       -1.02426355526862
C           62.42887712226973        2.70455752194812       -2.27223889889960
C           62.44911939060732        3.83746157455270       -3.22739010950373
C           63.07952793138583        5.03883561516954       -2.88918579397569
C           63.10047491556340        6.09668176561308       -3.77980568757428
C           62.48970040022861        5.95076020630739       -5.02205220650021
N           62.51090922321801        7.05757755610132       -5.96263901005341
O           61.96163120199091        6.89843244518011       -7.02241220263896
O           63.07566832314499        8.06565407416071       -5.62416484867926
C           61.85806702550658        4.76292770548671       -5.37902551658857
C           61.83794760894823        3.71318453534917       -4.47900844768168
C           63.65135659034939        2.16650294101925       -1.86562436202383
C           64.94128343420735        2.61658026089427       -2.35862597974667
C           65.87205212911172        1.87100258784401       -1.72843523002900
N           63.81931033069556        1.15050641263436       -0.97532308797508
C           65.14915211912081        0.95906492418485       -0.86363618615323
C           65.79636235627372        0.02297914047009       -0.03227592479276
C           65.16161496905012       -0.93185264616508        0.78574755024606
C           65.80281019026073       -1.86419163986258        1.64171337263950
C           64.83392775504913       -2.62854245242423        2.23211492527579
C           63.57252397556066       -2.18910096454008        1.74539219202734
N           63.82070337366768       -1.15387181369978        0.88508418534076
C           62.30912646039840       -2.69050130452479        2.08392563147632
C           62.28696887604846       -3.85235858483258        3.00339328153335
C           62.91204311546177       -5.05022923232435        2.64317777635129
C           62.89324904270824       -6.13785326241124        3.49717440014166
C           62.24833570303562       -6.02522764832207        4.72546286607827
N           62.23012849392509       -7.16300268780474        5.62854418604639
O           61.65598917945387       -7.03140955359011        6.67873612864688
O           62.79160204461545       -8.16651561617784        5.27144650128180
C           61.62179549048430       -4.84139828766180        5.10418282246368
C           61.64191293897695       -3.76136719570842        4.24070596366571
C           61.08723495877516       -2.18860706525206        1.63076267712682
C           59.79854994959115       -2.77439089449956        1.95544884373702
C           58.86753442208033       -2.00583684791402        1.35392162733517
C           59.58920046919499       -0.96153926324842        0.65354201192075
N           60.91923514715975       -1.10471796605685        0.82516616373308
H           57.86788305021990        2.24057243697622       -1.60826449276955
H           59.75844348973207        3.69121339317598       -2.81887602994528
H           61.63453805816471        0.62097785600227       -0.61016121716021
H           63.54052479067081        5.14410453001906       -1.91410051847650
H           63.58132534487875        7.03339685362749       -3.52476749801307
H           61.39404632599213        4.67305510200074       -6.35386285355599
H           61.36124418941980        2.77849530217520       -4.75063257510129
H           65.09295504105717        3.38767184878128       -3.09627869782441
H           66.94490861959429        1.90751664733073       -1.82881045623754
H           66.86893636557845       -1.93177525756058        1.78575583332156
H           64.97898542164380       -3.41937982011419        2.94968371105514
H           63.10356249979615       -0.62882304474460        0.39592335553447
H           63.39904843287059       -5.13009108188391        1.67824500399103
H           63.36907820994819       -7.07198733610711        3.22389518593631
H           61.12998370431799       -4.77840393210726        6.06741880101808
H           61.16910891046450       -2.82991469982775        4.52926828056099
H           59.64818126459071       -3.66081189562894        2.54986997685194
H           57.79539398163429       -2.11890295753905        1.35966140288059
C           72.39873273087453       -0.03703327963862        0.00413859479886
C           73.03265894722955        0.95073888327621       -0.77441411894696
C           72.39017250280618        1.96970446610382       -1.52412598686810
C           73.35863077910571        2.70359455263524       -2.15253209858526
C           74.62118823703551        2.14733161249206       -1.80941828670654
N           74.37385082723362        1.09780130219050       -0.96640122822533
C           75.88446622999004        2.59198421641224       -2.21979514622893
C           75.90321915136518        3.72612243214728       -3.17385775070514
C           76.52151022932954        4.93184672119198       -2.82924384591367
C           76.53859833725427        5.99188970040063       -3.71741573617366
C           75.93618947820669        5.84358401430851       -4.96340327092477
N           75.95281943214752        6.95295509685049       -5.90122495176592
O           75.41412912856600        6.79020198442276       -6.96581882992798
O           76.50286039124359        7.96659650759543       -5.55544672654711
C           75.31726757021819        4.65108462962685       -5.32694567150491
C           75.30100821809697        3.59908411020080       -4.42946023945786
C           77.10790971891815        2.05781775166724       -1.81029735140392
C           78.39732935202304        2.51645188262134       -2.29663670947402
C           79.32919282386094        1.76810172903711       -1.67159159428776
N           77.27692750353486        1.03528214466611       -0.92824401996914
C           78.60754840667734        0.84507529424109       -0.81753612004669
C           79.25559100683765       -0.10714047083877       -0.00615160970344
C           78.62278392456636       -1.07517134485577        0.79676759768519
C           79.26635617821186       -2.02999721730764        1.62585735292232
C           78.29768254558185       -2.78636019861665        2.22673200677560
C           77.03363435214889       -2.31837738222793        1.77467195239739
N           77.28057282875582       -1.27935874734997        0.91896094456414
C           75.76942305343421       -2.79223490300217        2.14847196052287
C           75.74870302006209       -3.95023808483118        3.07361716048726
C           76.32030927098140       -5.16829797986926        2.69349527876872
C           76.30233376952782       -6.25189719841239        3.55272048038105
C           75.71316365824320       -6.11434678563135        4.80621987058813
N           75.69696244320558       -7.24756860710057        5.71499342556808
O           75.17069260383104       -7.09433492726916        6.78711145585417
O           76.21200082738760       -8.26944195728164        5.34030675316020
C           75.14077030200606       -4.90983343701372        5.20496045771290
C           75.15869209342594       -3.83420656416599        4.33593068850283
C           74.54615889304550       -2.26781891175133        1.72702316386732
C           73.25561426655477       -2.82354358589042        2.09465683086204
C           72.32392721272511       -2.05253907124418        1.49732748816513
C           73.04663531731009       -1.03578238903906        0.75836003850329
N           74.37721506317605       -1.19498011336738        0.90641718519862
H           71.32347678468811        2.11870874534906       -1.56765821886978
H           73.21274318595925        3.56149930540547       -2.78822228719251
H           75.09156456865851        0.51776928525362       -0.54483182917162
H           76.97593822811926        5.03885892630765       -1.85127128522846
H           77.00997769252949        6.93202936374157       -3.45734941082786
H           74.85948903070452        4.55954344599448       -6.30457430214417
H           74.83394428186728        2.66092917825432       -4.70583764833534
H           78.54781934489205        3.29478887267333       -3.02685239027313
H           80.40201187897247        1.80850040418149       -1.77022027159948
H           80.33408359119694       -2.11679572241531        1.74593417984136
H           78.44453221542048       -3.58988416026453        2.92972569885157
H           76.56215746959731       -0.73553539735924        0.45267359833905
H           76.76475438416135       -5.26656729881678        1.70990149508815
H           76.73629185769980       -7.20178461163854        3.26443957328763
H           74.69214695057899       -4.82784858152524        6.18766889280270
H           74.72741860837311       -2.88725425671630        4.63875342727324
H           73.10443008292837       -3.69350264294009        2.71276715138378
H           71.25037574873481       -2.14661976555250        1.52996517555026
