254
 energy: -483.140665995840 gnorm: 6.330489674281 xtb: 6.5.1 (b24c23e)
C           45.10653300000000       -0.03765500000000       -0.16824700000000
C           45.83884799999999       -1.40275000000000        0.00958100000000
C           45.23876600000000       -2.64086800000000        0.03335100000000
C           46.26215400000000       -3.59371700000000        0.27579800000000
C           47.45181699999999       -2.90262900000000        0.40053100000000
N           47.18881000000000       -1.57376300000000        0.18132700000000
C           48.86895100000000       -3.51405100000000        0.75808700000000
C           48.90175300000000       -4.90085700000000        1.27392300000000
C           49.20314200000000       -5.96530700000000        0.41327200000000
C           49.22810200000000       -7.27545200000000        0.89410900000000
C           48.94675300000000       -7.51489600000000        2.24632400000000
N           48.97044399999999       -8.88969500000000        2.75770000000000
O           49.23989399999999       -9.80325200000000        1.96207300000000
O           48.71772199999999       -9.06981000000000        3.95925200000000
C           48.64236700000000       -6.45874500000000        3.11617400000000
C           48.62088399999999       -5.15289000000000        2.62339900000000
C           49.99981300000000       -2.76804700000000        0.64046000000000
C           51.29925300000000       -3.28031800000000        1.02552200000000
C           52.20214099999999       -2.32774000000000        0.82417000000000
N           50.19966700000000       -1.48655700000000        0.20148400000000
C           51.52837000000000       -1.16144100000000        0.28897000000000
C           52.19676199999999       -0.01962900000000       -0.02419400000000
C           51.42113199999999        1.22342700000000       -0.63141900000000
C           51.96121700000000        2.21202400000000       -1.43019500000000
C           50.93528000000000        3.15253000000000       -1.69808700000000
C           49.79607900000000        2.70659000000000       -1.06258200000000
N           50.08708200000000        1.50377700000000       -0.46406200000000
C           48.38796300000000        3.43314500000000       -1.04165200000000
C           48.36223699999999        4.89619200000000       -1.25024400000000
C           48.00070800000000        5.42715300000000       -2.49622300000000
C           47.98546300000000        6.80832300000000       -2.69738200000000
C           48.33847200000000        7.65865900000000       -1.64051400000000
N           48.32425900000000        9.11123500000000       -1.84511200000000
O           48.00971300000000        9.53898500000000       -2.96693300000000
O           48.62832399999999        9.83867600000000       -0.88675500000000
C           48.70515400000000        7.13974300000000       -0.39123300000000
C           48.71603100000000        5.75652000000000       -0.20271700000000
C           47.25946900000000        2.71404800000000       -0.81113100000000
C           45.93708500000000        3.31314100000000       -0.76592000000000
C           45.04986800000000        2.34968100000000       -0.53604700000000
C           45.77122299999999        1.10695300000000       -0.41330500000000
N           47.09327000000000        1.37800700000000       -0.57831400000000
H           44.02785500000000       -0.02272700000000       -0.06756600000000
H           44.18459700000000       -2.83450200000000       -0.09274300000000
H           46.13784699999999       -4.66137600000000        0.37344900000000
H           47.88482500000000       -0.83272000000000        0.15242200000000
H           49.42221000000000       -5.75317400000000       -0.63209200000000
H           49.46780100000000       -8.08202500000000        0.20693800000000
H           48.42290000000000       -6.62633700000000        4.16689800000000
H           48.38938099999999       -4.31578000000000        3.28025900000000
H           51.51017600000000       -4.25783400000000        1.42007700000000
H           53.25271600000000       -2.42814000000000        1.02736200000000
H           52.98329700000000        2.26036800000000       -1.77420800000000
H           51.02101900000000        4.05467700000000       -2.28439000000000
H           49.40438600000000        0.89438700000000       -0.02118000000000
H           47.72745599999999        4.74599400000000       -3.30078000000000
H           47.69767800000000        7.19358000000000       -3.67150300000000
H           48.98197900000000        7.78410500000000        0.43850900000000
H           48.99659900000000        5.33087700000000        0.75951400000000
H           45.70616000000000        4.35495100000000       -0.89385300000000
H           43.98536499999999        2.46956000000000       -0.44617000000000
C           93.09261600000001       -0.07810300000000       -0.15707400000000
C           92.36030199999999        1.18471000000000       -0.70517100000000
C           92.96038299999999        2.25947200000000       -1.32030500000000
C           91.93699499999998        3.20166200000000       -1.60133800000000
C           90.74733300000000        2.67259200000000       -1.13955200000000
N           91.01033900000000        1.41963300000000       -0.64556000000000
C           89.33019899999999        3.38085400000000       -1.14654100000000
C           89.29739700000000        4.83580000000000       -1.41570300000000
C           88.99600799999999        5.30754100000000       -2.70070700000000
C           88.97104800000000        6.67873100000000       -2.96055400000000
C           89.25239700000000        7.57832300000000       -1.92298300000000
N           89.22870500000001        9.02067600000000       -2.18980800000000
O           88.95925500000000        9.39629600000000       -3.34155400000000
O           89.48142699999998        9.79201500000000       -1.25108300000000
C           89.55678300000000        7.11842700000000       -0.63434500000000
C           89.57826599999999        5.74479000000000       -0.38694400000000
C           88.19933600000000        2.68025100000000       -0.86456200000000
C           86.89989700000000        3.31753800000000       -0.79705100000000
C           85.99700900000001        2.39667600000000       -0.48088800000000
N           87.99948300000000        1.35513900000000       -0.58349800000000
C           86.67077900000000        1.12103000000000       -0.34153300000000
C           86.00238800000000       -0.01962900000000       -0.02419400000000
C           86.77801799999999       -1.39811900000000        0.09275000000000
C           86.23793300000000       -2.65655600000000       -0.08531300000000
C           87.26386999999998       -3.60121400000000        0.16754800000000
C           88.40306999999999       -2.89229700000000        0.48403800000000
N           88.11206799999999       -1.55281200000000        0.38028100000000
C           89.81118600000001       -3.50508700000000        0.87494500000000
C           89.83691299999998       -4.86775400000000        1.44692000000000
C           90.19844100000000       -5.96299600000000        0.65015900000000
C           90.21368600000000       -7.25158100000000        1.18648500000000
C           89.86067799999998       -7.43884800000000        2.52997700000000
N           89.87488999999999       -8.79047900000000        3.10000600000000
O           90.18943700000000       -9.73341300000000        2.35681800000000
O           89.57082599999998       -8.92284400000000        4.29587200000000
C           89.49399500000000       -6.35224900000000        3.33575600000000
C           89.48311900000000       -5.06839200000000        2.78752500000000
C           90.93968099999999       -2.76962600000000        0.70366400000000
C           92.26206499999999       -3.26056500000000        1.04998200000000
C           93.14928100000000       -2.31572200000000        0.75271100000000
C           92.42792600000000       -1.18620100000000        0.22014900000000
N           91.10588000000000       -1.50352200000000        0.21767100000000
H           94.17129500000000       -0.03923400000000       -0.06300600000000
H           94.01455199999999        2.36092500000000       -1.52791200000000
H           92.06130300000000        4.16805800000000       -2.06556900000000
H           90.31432399999998        0.76882800000000       -0.28998500000000
H           88.77694000000000        4.58889600000000       -3.48895600000000
H           88.73134799999998        7.01820900000000       -3.96430600000000
H           89.77625000000000        7.80159700000000        0.18136700000000
H           89.80976899999999        5.36354600000000        0.60647000000000
H           86.68897400000000        4.35897600000000       -0.96020500000000
H           84.94643400000000        2.58713900000000       -0.35804400000000
H           85.21585300000000       -2.87462800000000       -0.35573100000000
H           87.17813099999999       -4.67639400000000        0.12745600000000
H           88.79476400000000       -0.80249600000000        0.44756200000000
H           90.47169400000000       -5.79140500000000       -0.38995900000000
H           90.50147100000000       -8.08223200000000        0.54824300000000
H           89.21717099999999       -6.47933300000000        4.37859900000000
H           89.20255099999999       -4.20918400000000        3.39483300000000
H           92.49298899999999       -4.22032100000000        1.47495500000000
H           94.21378500000000       -2.37246900000000        0.89137800000000
C           55.35140500000000       -0.00719300000000       -0.02175200000000
C           54.09913500000000       -0.02637400000000       -0.02610100000000
C           56.66507300000000       -0.00795800000000       -0.01982000000000
C           58.16820700000000       -0.02637400000000       -0.02610100000000
C           68.36231200000000       -0.00719300000000       -0.02175200000000
C           67.11004200000001       -0.02637400000000       -0.02610100000000
C           69.67598000000000       -0.00795800000000       -0.01982000000000
C           71.17911400000000       -0.02637400000000       -0.02610100000000
C           81.37321900000001       -0.00719300000000       -0.02175200000000
C           80.12094900000000       -0.02637400000000       -0.02610100000000
C           82.68688699999998       -0.00795800000000       -0.01982000000000
C           84.19002100000000       -0.02637400000000       -0.02610100000000
C           59.01446099999999        0.02259400000000        0.02720700000000
C           59.81016400000000        1.25828200000000       -0.56322900000000
C           59.31039699999999        2.52088100000000       -0.80864100000000
C           60.34936600000000        3.27765600000000       -1.40884800000000
C           61.45179699999999        2.45460700000000       -1.50572000000000
N           61.13647000000000        1.25524200000000       -0.91843500000000
C           62.83809299999999        2.81407100000000       -2.17782100000000
C           62.82555800000000        3.80279100000000       -3.27814400000000
C           63.26311900000000        5.11588000000000       -3.05481700000000
C           63.24078100000000        6.05315800000000       -4.08898900000000
C           62.77262799999999        5.66822000000000       -5.35283200000000
N           62.74613399999999        6.64851800000000       -6.44389900000000
O           62.34128000000000        6.27382200000000       -7.55551200000000
O           63.12913300000000        7.80343500000000       -6.19928200000000
C           62.32870300000000        4.35976900000000       -5.58763700000000
C           62.35651200000000        3.43156100000000       -4.54514600000000
C           63.97492299999999        2.18745800000000       -1.77759500000000
C           65.26022100000000        2.43866700000000       -2.39681700000000
C           66.16959400000000        1.67785400000000       -1.79717000000000
N           64.18513200000000        1.24792700000000       -0.80773300000000
C           65.50935100000000        0.90277300000000       -0.76648700000000
C           66.17376800000000        0.02259400000000        0.02720700000000
C           65.37801300000000       -0.79506800000000        1.12575700000000
C           65.87751500000000       -1.27875900000000        2.31768800000000
C           64.83856500000000       -2.01381100000000        2.94436600000000
C           63.73640799999999       -1.95077700000000        2.11766600000000
N           64.05187800000000       -1.14353500000000        1.05388900000000
C           62.35019699999999       -2.67972900000000        2.34055600000000
C           62.36277799999999       -3.95020600000000        3.09824500000000
C           62.83076900000000       -5.12193300000000        2.48903300000000
C           62.85856600000000       -6.32401100000000        3.19850600000000
C           62.41573300000000       -6.34598500000000        4.52804400000000
N           62.44226700000000       -7.60576700000000        5.27927400000000
O           62.06090600000000       -7.58837600000000        6.46021500000000
O           62.84551900000000       -8.62446500000000        4.69650900000000
C           61.94864099999999       -5.18000100000000        5.15008900000000
C           61.92623799999999       -3.98434900000000        4.43008200000000
C           61.21335600000000       -2.16610000000000        1.80299300000000
C           59.92805500000000       -2.82212400000000        1.93007400000000
C           59.01866499999999       -2.08691900000000        1.29931200000000
C           59.67890600000000       -0.92605600000000        0.73763600000000
N           61.00313700000000       -1.03317200000000        1.06827100000000
H           58.30553600000000        2.85562700000000       -0.59977300000000
H           60.29214699999999        4.30042000000000       -1.74919000000000
H           61.79313999999999        0.50246600000000       -0.73368200000000
H           63.62482100000000        5.39074400000000       -2.06509800000000
H           63.58929800000000        7.06269900000000       -3.88998400000000
H           61.96174000000000        4.04469000000000       -6.56049100000000
H           62.01599000000000        2.40965800000000       -4.70512100000000
H           65.45653500000000        3.11509600000000       -3.20894300000000
H           67.21382400000000        1.65235300000000       -2.05051500000000
H           66.88218000000001       -1.13782100000000        2.68676400000000
H           64.89561000000000       -2.54460700000000        3.88253400000000
H           63.39531800000000       -0.81746400000000        0.35059700000000
H           63.17044799999999       -5.08179400000000        1.45518600000000
H           63.22468900000000       -7.21792200000000        2.70125500000000
H           61.60099600000000       -5.17946300000000        6.17934900000000
H           61.56530700000000       -3.06614100000000        4.89112000000000
H           59.73174200000000       -3.74946500000000        2.43715600000000
H           57.97442000000000       -2.33054300000000        1.22549600000000
C           72.02536800000000        0.02259400000000        0.02720700000000
C           72.82107099999999        1.25828200000000       -0.56322900000000
C           72.32130400000000        2.52088100000000       -0.80864100000000
C           73.36027300000001        3.27765600000000       -1.40884800000000
C           74.46270400000000        2.45460700000000       -1.50572000000000
N           74.14737700000001        1.25524200000000       -0.91843500000000
C           75.84899999999999        2.81407100000000       -2.17782100000000
C           75.83646499999999        3.80279100000000       -3.27814400000000
C           76.27402600000001        5.11588000000000       -3.05481700000000
C           76.25168800000000        6.05315800000000       -4.08898900000000
C           75.78353500000000        5.66822000000000       -5.35283200000000
N           75.75704100000000        6.64851800000000       -6.44389900000000
O           75.35218699999999        6.27382200000000       -7.55551200000000
O           76.14004000000000        7.80343500000000       -6.19928200000000
C           75.33960999999999        4.35976900000000       -5.58763700000000
C           75.36741899999998        3.43156100000000       -4.54514600000000
C           76.98583000000001        2.18745800000000       -1.77759500000000
C           78.27112800000000        2.43866700000000       -2.39681700000000
C           79.18050099999999        1.67785400000000       -1.79717000000000
N           77.19603900000000        1.24792700000000       -0.80773300000000
C           78.52025800000000        0.90277300000000       -0.76648700000000
C           79.18467499999998        0.02259400000000        0.02720700000000
C           78.38891999999998       -0.79506800000000        1.12575700000000
C           78.88842200000001       -1.27875900000000        2.31768800000000
C           77.84947200000001       -2.01381100000000        2.94436600000000
C           76.74731500000000       -1.95077700000000        2.11766600000000
N           77.06278500000001       -1.14353500000000        1.05388900000000
C           75.36110399999998       -2.67972900000000        2.34055600000000
C           75.37368499999998       -3.95020600000000        3.09824500000000
C           75.84167600000001       -5.12193300000000        2.48903300000000
C           75.86947300000000       -6.32401100000000        3.19850600000000
C           75.42663999999999       -6.34598500000000        4.52804400000000
N           75.45317400000000       -7.60576700000000        5.27927400000000
O           75.07181199999999       -7.58837600000000        6.46021500000000
O           75.85642599999998       -8.62446500000000        4.69650900000000
C           74.95954800000000       -5.18000100000000        5.15008900000000
C           74.93714499999999       -3.98434900000000        4.43008200000000
C           74.22426299999999       -2.16610000000000        1.80299300000000
C           72.93896200000000       -2.82212400000000        1.93007400000000
C           72.02957200000000       -2.08691900000000        1.29931200000000
C           72.68981300000000       -0.92605600000000        0.73763600000000
N           74.01404400000000       -1.03317200000000        1.06827100000000
H           71.31644300000001        2.85562700000000       -0.59977300000000
H           73.30305400000000        4.30042000000000       -1.74919000000000
H           74.80404700000000        0.50246600000000       -0.73368200000000
H           76.63572799999999        5.39074400000000       -2.06509800000000
H           76.60020499999999        7.06269900000000       -3.88998400000000
H           74.97264699999999        4.04469000000000       -6.56049100000000
H           75.02689700000001        2.40965800000000       -4.70512100000000
H           78.46744200000001        3.11509600000000       -3.20894300000000
H           80.22473100000001        1.65235300000000       -2.05051500000000
H           79.89308699999999       -1.13782100000000        2.68676400000000
H           77.90651699999999       -2.54460700000000        3.88253400000000
H           76.40622499999999       -0.81746400000000        0.35059700000000
H           76.18135499999998       -5.08179400000000        1.45518600000000
H           76.23559599999999       -7.21792200000000        2.70125500000000
H           74.61190300000000       -5.17946300000000        6.17934900000000
H           74.57621399999999       -3.06614100000000        4.89112000000000
H           72.74264800000000       -3.74946500000000        2.43715600000000
H           70.98532700000000       -2.33054300000000        1.22549600000000
254
 energy: -485.347342368011 gnorm: 1.233616737862 xtb: 6.5.1 (b24c23e)
C           45.11058447079920       -0.04546945585044       -0.16716093438679
C           45.83660583859879       -1.39673297304139        0.00868015522545
C           45.23957276428493       -2.64303114801644        0.03400410696623
C           46.26030945833016       -3.59320790604212        0.27590685919179
C           47.45754934510053       -2.90431745129629        0.40165357884017
N           47.18891300633518       -1.57371754928682        0.18157574236207
C           48.86169145974294       -3.51039870321158        0.75611917249505
C           48.90118461261508       -4.90066561528176        1.27359266008161
C           49.20314373529956       -5.96562374155455        0.41387443872126
C           49.22804402421440       -7.27472370509039        0.89423696471661
C           48.94675631258878       -7.51538466733796        2.24649975038309
N           48.97044153836017       -8.89186265226839        2.75849134163992
O           49.23889412810494       -9.79975807092991        1.96503946008223
O           48.71867915769914       -9.06906509332106        3.95471949916275
C           48.64247653368032       -6.45825628768002        3.11561293435153
C           48.62089847420816       -5.15352204532258        2.62313975683046
C           50.00167976921187       -2.76684900082343        0.64035629018767
C           51.29954651739722       -3.28197139442555        1.02617186928761
C           52.20386631250241       -2.32802799396322        0.82441677112999
N           50.19848381170307       -1.48453271027606        0.20105825942220
C           51.52851421902017       -1.16312688986891        0.28982171955551
C           52.20191161708986       -0.01354599269192       -0.02811802975089
C           51.42471332735201        1.21835567035312       -0.62919715325289
C           51.96073521884385        2.21368794505837       -1.43045458909256
C           50.93695139303779        3.15207158285111       -1.69781022389285
C           49.79057726147962        2.70863701616156       -1.06222801849659
N           50.08728096754758        1.50368524583066       -0.46373219734184
C           48.39508633418742        3.42920643770705       -1.04152775805991
C           48.36285780010038        4.89582989927790       -1.25055128162899
C           48.00066118678686        5.42773383295736       -2.49586826228151
C           47.98552880583903        6.80771860800439       -2.69693405722696
C           48.33846830270328        7.65920261269325       -1.64059562961544
N           48.32425174884425        9.11348183777968       -1.84545452849038
O           48.01088417259032        9.53732236275594       -2.96271808257831
O           48.62719396258090        9.83589104019623       -0.89031918029855
C           48.70501903072509        7.13902432712537       -0.39146903267318
C           48.71605432792440        5.75699793318459       -0.20322730382618
C           47.25754526840142        2.71294490292835       -0.81055682155741
C           45.93666586743714        3.31491796559960       -0.76620508396237
C           45.04837641941628        2.35051747873466       -0.53603509466140
C           45.77229568659913        1.10885675316685       -0.41348309462675
N           47.09522542248854        1.37662676533553       -0.57815875164190
H           44.02856480233141       -0.02349806661981       -0.06773145892625
H           44.18482387343632       -2.83469782376573       -0.09270811412750
H           46.13774404351064       -4.66123700796693        0.37341041910479
H           47.88463335221128       -0.83296539856055        0.15245890892433
H           49.42210496970607       -5.75343588224719       -0.63166695465771
H           49.46767406259777       -8.08209696236607        0.20745358801077
H           48.42302311636166       -6.62672586841119        4.16654819362283
H           48.38944245946107       -4.31625171878919        3.28009510499379
H           51.50984534950811       -4.25846758032410        1.42024824746614
H           53.25339022850950       -2.42763028764359        1.02727555729864
H           52.98313978708938        2.26047229466717       -1.77414266176600
H           51.02114929698922        4.05452241823405       -2.28430265030226
H           49.40465450659430        0.89460559477292       -0.02128886554396
H           47.72758113567338        4.74642831201235       -3.30053724294409
H           47.69783657532665        7.19388556146250       -3.67109550013283
H           48.98182285357163        7.78427987276875        0.43802608894272
H           48.99651885090884        5.33120616314971        0.75915303231248
H           45.70646410902027        4.35562941663537       -0.89401375188535
H           43.98482506980958        2.46938014890490       -0.44610581282607
C           93.08857720271895       -0.07087346563405       -0.16013712760649
C           92.36253114984414        1.17912384524411       -0.70287544178506
C           92.95958046265291        2.26163445440248       -1.32084430294669
C           91.93880424841407        3.20128718942500       -1.60098168600131
C           90.74164142374978        2.67462438647298       -1.13948036820699
N           91.01024783934977        1.41971633568318       -0.64531597054045
C           89.33739721143763        3.37670203856803       -1.14633553039581
C           89.29796403208312        4.83546213767696       -1.41589199064640
C           88.99600708788147        5.30812016546007       -2.70035339931261
C           88.97110617878070        6.67817120769280       -2.96007053765653
C           89.25239346438421        7.57883316874119       -1.92308432140363
N           89.22870622528188        9.02293570128672       -2.19025134525958
O           88.96025626070418        9.39482184575121       -3.33720840858284
O           89.48046967576224        9.78905500559319       -1.25458353537063
C           89.55667326118693        7.11771767620531       -0.63457603046706
C           89.57825155903514        5.74519668341026       -0.38748969415403
C           88.19749775442735        2.67929932240105       -0.86401448167888
C           86.89965290861345        3.31932325229839       -0.79735989434212
C           85.99531427120934        2.39699465893122       -0.48081804694296
N           88.00048150416036        1.35304760571770       -0.58278276816712
C           86.67096159435035        1.12323614440509       -0.34199940454444
C           85.99576452439476       -0.02698775130068       -0.02437409700885
C           86.77453021343101       -1.39280737975098        0.09227459423360
C           86.23840882371269       -2.65801932192939       -0.08469621835549
C           87.26227267549214       -3.60068184502458        0.16755956361438
C           88.40851174974020       -2.89388766596682        0.48536298623961
N           88.11186409524488       -1.55257076659939        0.38053577792194
C           89.80411852965452       -3.50165265347500        0.87303167911415
C           89.83629206820767       -4.86759331169877        1.44647576753043
C           90.19848880502128       -5.96331268383380        0.65076258135951
C           90.21362055246220       -7.25083092350071        1.18655840889831
C           89.86068141979774       -7.43935879069312        2.53018774116903
N           89.87489423173713       -8.79257509876133        3.10087057620077
O           90.18826769314396       -9.72982848014066        2.35957660275836
O           89.57195843313873       -8.92228474318969        4.29138082856409
C           89.49412887318610       -6.35175220350548        3.33518536424401
C           89.48309421640640       -5.06906718840633        2.78733366937083
C           90.94158970964932       -2.76841281048773        0.70359080665989
C           92.26248654185422       -3.26223474857727        1.05064980936108
C           93.15077093069851       -2.31643618492133        0.75315165301641
C           92.42686600319541       -1.18791590950357        0.22096820832815
N           91.10391746048623       -1.50224459946650        0.21709094556298
H           94.17058573873814       -0.03865695518176       -0.06354182159571
H           94.01432489001662        2.36111036843522       -1.52798178149378
H           92.06140463051433        4.16792008418011       -2.06553033388265
H           90.31451840444693        0.76905554709650       -0.29007908161479
H           88.77704467171679        4.58933934071228       -3.48872548191800
H           88.73147450086499        7.01853501815938       -3.96390048860545
H           89.77612707367311        7.80175030701169        0.18086726267239
H           89.80970764395924        5.36386681463531        0.60608765944570
H           86.68930500810667        4.35960782099139       -0.96038481331812
H           84.94574708299722        2.58663208180294       -0.35785214076212
H           85.21600307135520       -2.87466715732036       -0.35562340135198
H           87.17800061348098       -4.67621519522454        0.12745402809960
H           88.79449662328112       -0.80274114040160        0.44758531237089
H           90.47156913621025       -5.79165283111783       -0.38952774523292
H           90.50131229622133       -8.08228491962400        0.54874963172811
H           89.21732725543885       -6.47973133260501        4.37827462995573
H           89.20263122564069       -4.20965221044603        3.39469210607286
H           92.49268540242636       -4.22098626199042        1.47516569437088
H           94.21432541727803       -2.37228192393400        0.89134078113617
C           55.34984634427597       -0.00735908258494       -0.02162451098890
C           54.08932069214752       -0.02605857894729       -0.02613845031815
C           56.66278655600851       -0.00807642635328       -0.02079024930788
C           57.99549361731388       -0.03106566053066       -0.03902092775365
C           68.38741516080819       -0.00840457093261       -0.02207259555418
C           67.20451803286700       -0.03433589975716       -0.02864379899445