      -----------------------------------------------------------      
     |                   =====================                   |     
     |                           x T B                           |     
     |                   =====================                   |     
     |                         S. Grimme                         |     
     |          Mulliken Center for Theoretical Chemistry        |     
     |                    University of Bonn                     |     
      -----------------------------------------------------------      

   * xtb version 6.5.1 (b24c23e) compiled by 'conda@728c89f4b128' on 2022-07-12

   xtb is free software: you can redistribute it and/or modify it under
   the terms of the GNU Lesser General Public License as published by
   the Free Software Foundation, either version 3 of the License, or
   (at your option) any later version.
   
   xtb is distributed in the hope that it will be useful,
   but WITHOUT ANY WARRANTY; without even the implied warranty of
   MERCHANTABILITY or FITNESS FOR A PARTICULAR PURPOSE.  See the
   GNU Lesser General Public License for more details.
   
   Cite this work as:
   * C. Bannwarth, E. Caldeweyher, S. Ehlert, A. Hansen, P. Pracht,
     J. Seibert, S. Spicher, S. Grimme, WIREs Comput. Mol. Sci., 2020, 11,
     e01493. DOI: 10.1002/wcms.1493
   
   for GFN2-xTB:
   * C. Bannwarth, S. Ehlert and S. Grimme., J. Chem. Theory Comput., 2019,
     15, 1652-1671. DOI: 10.1021/acs.jctc.8b01176
   for GFN1-xTB:
   * S. Grimme, C. Bannwarth, P. Shushkov, J. Chem. Theory Comput., 2017,
     13, 1989-2009. DOI: 10.1021/acs.jctc.7b00118
   for GFN0-xTB:
   * P. Pracht, E. Caldeweyher, S. Ehlert, S. Grimme, ChemRxiv, 2019, preprint.
     DOI: 10.26434/chemrxiv.8326202.v1
   for GFN-FF:
   * S. Spicher and S. Grimme, Angew. Chem. Int. Ed., 2020, 59, 15665-15673.
     DOI: 10.1002/anie.202004239
   
   for ALPB and GBSA implicit solvation:
   * S. Ehlert, M. Stahn, S. Spicher, S. Grimme, J. Chem. Theory Comput.,
     2021, 17, 4250-4261. DOI: 10.1021/acs.jctc.1c00471
   
   for DFT-D4:
   * E. Caldeweyher, C. Bannwarth and S. Grimme, J. Chem. Phys., 2017,
     147, 034112. DOI: 10.1063/1.4993215
   * E. Caldeweyher, S. Ehlert, A. Hansen, H. Neugebauer, S. Spicher,
     C. Bannwarth and S. Grimme, J. Chem. Phys., 2019, 150, 154122.
     DOI: 10.1063/1.5090222
   * E. Caldeweyher, J.-M. Mewes, S. Ehlert and S. Grimme, Phys. Chem. Chem. Phys.
     2020, 22, 8499-8512. DOI: 10.1039/D0CP00502A
   
   for sTDA-xTB:
   * S. Grimme and C. Bannwarth, J. Chem. Phys., 2016, 145, 054103.
     DOI: 10.1063/1.4959605
   
   in the mass-spec context:
   * V. Asgeirsson, C. Bauer and S. Grimme, Chem. Sci., 2017, 8, 4879.
     DOI: 10.1039/c7sc00601b
   * J. Koopman and S. Grimme, ACS Omega 2019, 4, 12, 15120-15133.
     DOI: 10.1021/acsomega.9b02011
   
   for metadynamics refer to:
   * S. Grimme, J. Chem. Theory Comput., 2019, 155, 2847-2862
     DOI: 10.1021/acs.jctc.9b00143
   
   for SPH calculations refer to:
   * S. Spicher and S. Grimme, J. Chem. Theory Comput., 2021, 17, 1701-1714
     DOI: 10.1021/acs.jctc.0c01306
   
   with help from (in alphabetical order)
   P. Atkinson, C. Bannwarth, F. Bohle, G. Brandenburg, E. Caldeweyher
   M. Checinski, S. Dohm, S. Ehlert, S. Ehrlich, I. Gerasimov, C. Hölzer
   A. Katbashev, J. Koopman, C. Lavigne, S. Lehtola, F. März, M. Müller,
   F. Musil, H. Neugebauer, J. Pisarek, C. Plett, P. Pracht, F. Pultar,
   J. Seibert, P. Shushkov, S. Spicher, M. Stahn, M. Steiner, T. Strunk,
   J. Stückrath, T. Rose, and J. Unsleber
   
 * started run on 2022/07/30 at 10:24:01.023     

           -------------------------------------------------
          |                Calculation Setup                |
           -------------------------------------------------

          program call               : xtb Zn_PhNO2_C8_4.xyz --gfn 1 --opt -T 48
          hostname                   : cx3-15-11.cx3.hpc.ic.ac.uk
          coordinate file            : Zn_PhNO2_C8_4.xyz
          omp threads                :                     1

   ID    Z sym.   atoms
    1   30 Zn     1, 61, 145, 204
    2    6 C      2-6, 8-12, 16-20, 22-27, 29-33, 37-42, 62-66, 68-72, 76-80,
                  82-87, 89-93, 97-102, 121-144, 146-150, 152-156, 160-164,
                  166-171, 173-177, 181-186, 205-209, 211-215, 219-223,
                  225-230, 232-236, 240-245
    3    7 N      7, 13, 21, 28, 34, 43, 67, 73, 81, 88, 94, 103, 151, 157,
                  165, 172, 178, 187, 210, 216, 224, 231, 237, 246
    4    8 O      14, 15, 35, 36, 74, 75, 95, 96, 158, 159, 179, 180, 217,
                  218, 238, 239
    5    1 H      44-60, 104-120, 188-203, 247-262

molecular fragmentation (1/2 indicates fragments):
111111111111111111111111111111111111111111111111111111111111222222222222
222222222222222222222222222222222222222222222222222222222222222222222222
222222222222222222222222222222222222222222222222222222222222222222222222
2222222222222222222222222222222222222222222222
# atoms in fragment 1/2:    60   202
 fragment masses (1/2) :      614.89     2130.92
CMA distance (Bohr)    :  67.937
constraining FC (au)   :  0.0500
########################################################################
[WARNING] Please study the warnings concerning your input carefully
-1- prog_main_parseArguments: Unknown option '-T' provided
########################################################################

           -------------------------------------------------
          |                 G F N 1 - x T B                 |
           -------------------------------------------------

        Reference                      10.1021/acs.jctc.7b00118
      * Hamiltonian:
        H0-scaling (s, p, d)           1.850000    2.250000    2.000000
        zeta-weighting                 0.000000
      * Dispersion:
        s8                             2.400000
        a1                             0.630000
        a2                             5.000000
        s9                             0.000000
      * Repulsion:
        kExp                           1.500000
        rExp                           1.000000
      * Coulomb:
        alpha                          2.000000
        third order                    atomic
        anisotropic                    false
      * Halogen bond correction:
        rad-scale                      1.300000
        damping                        0.440000


          ...................................................
          :                      SETUP                      :
          :.................................................:
          :  # basis functions                 916          :
          :  # atomic orbitals                 916          :
          :  # shells                          524          :
          :  # electrons                       898          :
          :  # halogen bonds                     0          :
          :  max. iterations                   250          :
          :  Hamiltonian                  GFN1-xTB          :
          :  restarted?                      false          :
          :  GBSA solvation                  false          :
          :  PC potential                    false          :
          :  electronic temp.          300.0000000     K    :
          :  accuracy                    1.0000000          :
          :  -> integral cutoff          0.2500000E+02      :
          :  -> integral neglect         0.1000000E-07      :
          :  -> SCF convergence          0.1000000E-05 Eh   :
          :  -> wf. convergence          0.2000000E-04 e    :
          :  Broyden damping             0.4000000          :
          ...................................................

 iter      E             dE          RMSdq      gap      omega  full diag
   1   -515.0444657 -0.515044E+03  0.107E+01    0.12       0.0  T
   2   -513.1016815  0.194278E+01  0.646E+00    0.02       1.0  T
   3   -164.2401101  0.348862E+03  0.103E+01    0.04       1.0  T
   4    922.0017173  0.108624E+04  0.139E+01    0.04       1.0  T
   5    309.1023185 -0.612899E+03  0.106E+01    0.00       1.0  T
   6   -334.7677065 -0.643870E+03  0.674E+00    0.04       1.0  T
   7   -451.0328851 -0.116265E+03  0.467E+00    0.02       1.0  T
   8   -475.7669324 -0.247340E+02  0.344E+00    0.01       1.0  T
   9   -494.0426255 -0.182757E+02  0.271E+00    0.02       1.0  T
  10   -512.5105403 -0.184679E+02  0.170E+00    0.05       1.0  T
  11   -512.3213071  0.189233E+00  0.147E+00    0.02       1.0  T
  12   -515.9018830 -0.358058E+01  0.106E+00    0.08       1.0  T
  13   -516.9256331 -0.102375E+01  0.935E-01    0.07       1.0  T
  14   -516.8503198  0.753133E-01  0.848E-01    0.14       1.0  T
  15   -516.9903827 -0.140063E+00  0.791E-01    0.09       1.0  T
  16   -517.0703876 -0.800049E-01  0.540E-01    0.29       1.0  T
  17   -517.0957372 -0.253496E-01  0.497E-01    0.15       1.0  T
  18   -516.4493564  0.646381E+00  0.731E-01    0.07       1.0  T
  19   -517.1220235 -0.672667E+00  0.362E-01    0.11       1.0  T
  20   -517.0216979  0.100326E+00  0.374E-01    0.02       1.0  T
  21   -517.1655968 -0.143899E+00  0.229E-01    0.21       1.0  T
  22   -517.1808613 -0.152645E-01  0.171E-01    0.16       1.0  T
  23   -517.1945156 -0.136543E-01  0.111E-01    0.12       1.0  T
  24   -517.1943171  0.198524E-03  0.110E-01    0.09       1.0  T
  25   -517.1987007 -0.438355E-02  0.754E-02    0.12       1.0  T
  26   -517.2021099 -0.340927E-02  0.589E-02    0.10       1.0  T
  27   -517.2021899 -0.799976E-04  0.511E-02    0.10       1.0  T
  28   -517.2035668 -0.137690E-02  0.389E-02    0.11       1.0  T
  29   -517.2037446 -0.177761E-03  0.392E-02    0.10       1.0  T
  30   -517.2042845 -0.539878E-03  0.312E-02    0.10       1.0  T
  31   -517.2042364  0.480684E-04  0.308E-02    0.10       1.0  T
  32   -517.2046919 -0.455521E-03  0.232E-02    0.10       1.0  T
  33   -517.2048428 -0.150889E-03  0.190E-02    0.10       1.0  T
  34   -517.2050078 -0.164998E-03  0.153E-02    0.10       1.0  T
  35   -517.2051181 -0.110240E-03  0.135E-02    0.10       1.0  T
  36   -517.2051469 -0.288826E-04  0.119E-02    0.10       1.0  T
  37   -517.2051924 -0.454318E-04  0.103E-02    0.11       1.0  T
  38   -517.2052230 -0.305808E-04  0.838E-03    0.11       1.0  T
  39   -517.2052395 -0.165891E-04  0.701E-03    0.11       1.0  T
  40   -517.2052675 -0.279406E-04  0.447E-03    0.10       1.4  T
  41   -517.2052847 -0.171712E-04  0.218E-03    0.10       2.8  T
  42   -517.2052873 -0.266156E-05  0.183E-03    0.10       3.4  T
  43   -517.2052876 -0.315680E-06  0.170E-03    0.10       3.6  T
  44   -517.2052891 -0.150592E-05  0.175E-03    0.10       3.5  T
  45   -517.2052902 -0.107408E-05  0.153E-03    0.10       4.0  T
  46   -517.2052909 -0.676882E-06  0.134E-03    0.10       4.6  T
  47   -517.2052910 -0.136068E-06  0.133E-03    0.10       4.6  T
  48   -517.2052910  0.561472E-07  0.131E-03    0.10       4.7  T
  49   -517.2052909  0.458858E-07  0.122E-03    0.10       5.1  T
  50   -517.2052906  0.366375E-06  0.119E-03    0.10       5.2  T
  51   -517.2052908 -0.295683E-06  0.108E-03    0.10       5.7  T
  52   -517.2052913 -0.409234E-06  0.927E-04    0.10       6.7  T
  53   -517.2052916 -0.340163E-06  0.766E-04    0.10       8.1  T
  54   -517.2052919 -0.309389E-06  0.594E-04    0.10      10.4  T
  55   -517.2052923 -0.388615E-06  0.313E-04    0.10      19.7  T
  56   -517.2052924 -0.130143E-06  0.130E-04    0.10      47.4  T
  57   -517.2052924 -0.222129E-07  0.566E-05    0.10     109.1  T

   *** convergence criteria satisfied after 57 iterations ***

         #    Occupation            Energy/Eh            Energy/eV
      -------------------------------------------------------------
         1        2.0000           -0.8957633             -24.3750
       ...           ...                  ...                  ...
       443        2.0000           -0.4162573             -11.3269
       444        2.0000           -0.4105690             -11.1722
       445        2.0000           -0.4045117             -11.0073
       446        2.0000           -0.3989193             -10.8551
       447        2.0000           -0.3961977             -10.7811
       448        1.9445           -0.3869893             -10.5305
       449        1.7434           -0.3854302             -10.4881 (HOMO)
       450        0.2137           -0.3815928             -10.3837 (LUMO)
       451        0.0311           -0.3796701             -10.3313
       452        0.0270           -0.3795343             -10.3277
       453        0.0238           -0.3794124             -10.3243
       454        0.0057           -0.3780520             -10.2873
       ...           ...                  ...                  ...
       916                          5.8862880             160.1740
      -------------------------------------------------------------
                  HL-Gap            0.0038374 Eh            0.1044 eV
             Fermi-level           -0.3836099 Eh          -10.4386 eV

 SCC (total)                   0 d,  0 h,  0 min, 24.502 sec
 SCC setup                      ...        0 min,  0.021 sec (  0.085%)
 Dispersion                     ...        0 min,  0.013 sec (  0.054%)
 classical contributions        ...        0 min,  0.003 sec (  0.013%)
 integral evaluation            ...        0 min,  0.352 sec (  1.435%)
 iterations                     ...        0 min, 23.307 sec ( 95.122%)
 molecular gradient             ...        0 min,  0.686 sec (  2.800%)
 printout                       ...        0 min,  0.120 sec (  0.491%)

         :::::::::::::::::::::::::::::::::::::::::::::::::::::
         ::                     SUMMARY                     ::
         :::::::::::::::::::::::::::::::::::::::::::::::::::::
         :: total energy            -507.565575878374 Eh    ::
         :: gradient norm              4.361900114644 Eh/a0 ::
         :: HOMO-LUMO gap              0.104419832042 eV    ::
         ::.................................................::
         :: SCC energy              -517.205292448294 Eh    ::
         :: -> electrostatic           1.035764217193 Eh    ::
         :: repulsion energy           9.871298339420 Eh    ::
         :: dispersion energy         -0.231581769500 Eh    ::
         :: halogen bond corr.         0.000000000000 Eh    ::
         :: add. restraining           0.000000000000 Eh    ::
         :: total charge               0.000000000006 e     ::
         :::::::::::::::::::::::::::::::::::::::::::::::::::::

      ----------------------------------------------------------- 
     |                   =====================                   |
     |                        A N C O P T                        |
     |                   =====================                   |
     |               Approximate Normal Coordinate               |
     |                Rational Function Optimizer                |
      ----------------------------------------------------------- 

          ...................................................
          :                      SETUP                      :
          :.................................................:
          :   optimization level            normal          :
          :   max. optcycles                   786          :
          :   ANC micro-cycles                  20          :
          :   degrees of freedom               780          :
          :.................................................:
          :   RF solver                   davidson          :
          :   write xtbopt.log                true          :
          :   linear?                        false          :
          :   energy convergence         0.5000000E-05 Eh   :
          :   grad. convergence          0.1000000E-02 Eh/α :
          :   maximium RF displ.         1.0000000          :
          :   Hlow (freq-cutoff)         0.1000000E-01      :
          :   Hmax (freq-cutoff)         5.0000000          :
          :   S6 in model hess.         20.0000000          :
          ...................................................

generating ANC from model Hessian ...
Using Lindh-Hessian (1995)
 Shifting diagonal of input Hessian by    1.0087899865682540E-002
 Lowest  eigenvalues of input Hessian
    0.010000    0.010044    0.010068    0.010071    0.010072    0.010074
    0.010077    0.010079    0.010081    0.010083    0.010084    0.000000
    0.000000    0.000000    0.000000    0.000000    0.000000    0.010090
 Highest eigenvalues
    3.488712    3.488717    4.198817    4.198827    4.269035    4.269038


........................................................................
.............................. CYCLE    1 ..............................
........................................................................
   1   -517.2052925 -0.517205E+03  0.184E-05    0.10       0.0  T
   2   -517.2052924  0.933017E-08  0.931E-05    0.10      66.4  T
   3   -517.2052924 -0.724071E-09  0.964E-05    0.10      64.1  T
     SCC iter.                  ...        0 min,  1.177 sec
     gradient                   ...        0 min,  0.686 sec
 * total energy  :  -507.5655759 Eh     change        0.3847617E-08 Eh
   gradient norm :     4.3618922 Eh/α   predicted     0.0000000E+00 (-100.00%)
   displ. norm   :     0.6779951 α      lambda       -0.2900189E+01
   maximum displ.:     0.3787698 α      in ANC's #779, #780, #768, ...

........................................................................
.............................. CYCLE    2 ..............................
........................................................................
   1   -517.2538821 -0.517254E+03  0.417E-01    0.40       0.0  T
   2   -517.1106881  0.143194E+00  0.570E-01    0.20       1.0  T
   3   -517.2877384 -0.177050E+00  0.204E-01    0.36       1.0  T
   4   -517.3148706 -0.271322E-01  0.438E-02    0.27       1.0  T
   5   -517.3153538 -0.483217E-03  0.283E-02    0.28       1.0  T
   6   -517.3152026  0.151191E-03  0.274E-02    0.25       1.0  T
   7   -517.3156522 -0.449584E-03  0.140E-02    0.25       1.0  T
   8   -517.3157366 -0.843710E-04  0.614E-03    0.26       1.0  T
   9   -517.3157491 -0.125651E-04  0.366E-03    0.26       1.7  T
  10   -517.3157540 -0.490067E-05  0.141E-03    0.26       4.4  T
  11   -517.3157555 -0.144948E-05  0.279E-04    0.26      22.1  T
  12   -517.3157555 -0.534853E-07  0.126E-04    0.26      48.9  T
  13   -517.3157556 -0.157828E-07  0.573E-05    0.26     107.7  T
     SCC iter.                  ...        0 min,  5.139 sec
     gradient                   ...        0 min,  0.672 sec
 * total energy  :  -509.1420227 Eh     change       -0.1576447E+01 Eh
   gradient norm :     1.2691528 Eh/α   predicted    -0.2116676E+01 (  34.27%)
   displ. norm   :     0.5717619 α      lambda       -0.6304076E+00
   maximum displ.:     0.1292511 α      in ANC's #768, #626, #767, ...

........................................................................
.............................. CYCLE    3 ..............................
........................................................................
   1   -517.5247286 -0.517525E+03  0.197E-01    0.55       0.0  T
   2   -517.5332134 -0.848488E-02  0.110E-01    0.55       1.0  T
   3   -517.5351943 -0.198084E-02  0.637E-02    0.56       1.0  T
   4   -517.5356917 -0.497450E-03  0.568E-02    0.54       1.0  T
   5   -517.5366982 -0.100651E-02  0.220E-02    0.54       1.0  T
   6   -517.5367572 -0.589670E-04  0.102E-02    0.54       1.0  T
   7   -517.5368250 -0.678144E-04  0.305E-03    0.54       2.0  T
   8   -517.5368306 -0.555328E-05  0.150E-03    0.54       4.1  T
   9   -517.5368319 -0.134704E-05  0.381E-04    0.54      16.2  T
  10   -517.5368320 -0.764956E-07  0.169E-04    0.54      36.5  T
  11   -517.5368320 -0.212077E-07  0.538E-05    0.54     114.8  T
     SCC iter.                  ...        0 min,  4.684 sec
     gradient                   ...        0 min,  0.680 sec
 * total energy  :  -509.6131629 Eh     change       -0.4711402E+00 Eh
   gradient norm :     0.6485633 Eh/α   predicted    -0.4182478E+00 ( -11.23%)
   displ. norm   :     0.6316672 α      lambda       -0.3366837E+00
   maximum displ.:     0.2348002 α      in ANC's #214, #535, #544, ...

........................................................................
.............................. CYCLE    4 ..............................
........................................................................
   1   -517.7664919 -0.517766E+03  0.228E-01    0.73       0.0  T
   2   -517.7793625 -0.128706E-01  0.127E-01    0.73       1.0  T
   3   -517.7830301 -0.366764E-02  0.648E-02    0.75       1.0  T
   4   -517.7835583 -0.528164E-03  0.483E-02    0.73       1.0  T
   5   -517.7844995 -0.941232E-03  0.201E-02    0.74       1.0  T
   6   -517.7846406 -0.141062E-03  0.831E-03    0.74       1.0  T
   7   -517.7846882 -0.475591E-04  0.201E-03    0.74       3.1  T
   8   -517.7846905 -0.235899E-05  0.882E-04    0.74       7.0  T
   9   -517.7846910 -0.498649E-06  0.395E-04    0.74      15.6  T
  10   -517.7846911 -0.119501E-06  0.108E-04    0.74      57.4  T
  11   -517.7846912 -0.745774E-08  0.383E-05    0.74     161.1  T
     SCC iter.                  ...        0 min,  4.293 sec
     gradient                   ...        0 min,  0.675 sec
 * total energy  :  -509.8443825 Eh     change       -0.2312196E+00 Eh
   gradient norm :     0.2856127 Eh/α   predicted    -0.2355110E+00 (   1.86%)
   displ. norm   :     0.7566288 α      lambda       -0.1480093E+00
   maximum displ.:     0.4202234 α      in ANC's #214, #152, #156, ...

........................................................................
.............................. CYCLE    5 ..............................
........................................................................
   1   -517.8249596 -0.517825E+03  0.989E-02    0.78       0.0  T
   2   -517.8267126 -0.175302E-02  0.708E-02    0.78       1.0  T
   3   -517.8282864 -0.157378E-02  0.283E-02    0.78       1.0  T
   4   -517.8283276 -0.412213E-04  0.249E-02    0.78       1.0  T
   5   -517.8285986 -0.270908E-03  0.961E-03    0.78       1.0  T
   6   -517.8286343 -0.357579E-04  0.328E-03    0.78       1.9  T
   7   -517.8286415 -0.720007E-05  0.112E-03    0.78       5.5  T
   8   -517.8286425 -0.953873E-06  0.479E-04    0.78      12.9  T
   9   -517.8286427 -0.183573E-06  0.170E-04    0.78      36.2  T
  10   -517.8286427 -0.149022E-07  0.590E-05    0.78     104.7  T
     SCC iter.                  ...        0 min,  4.039 sec
     gradient                   ...        0 min,  0.680 sec
 * total energy  :  -509.9662060 Eh     change       -0.1218235E+00 Eh
   gradient norm :     0.1855641 Eh/α   predicted    -0.1163714E+00 (  -4.48%)
   displ. norm   :     0.8549235 α      lambda       -0.1198851E+00
   maximum displ.:     0.4232509 α      in ANC's #214, #152, #156, ...

........................................................................
.............................. CYCLE    6 ..............................
........................................................................
   1   -517.8169026 -0.517817E+03  0.741E-02    0.80       0.0  T
   2   -517.8174327 -0.530093E-03  0.672E-02    0.80       1.0  T
   3   -517.8186130 -0.118027E-02  0.249E-02    0.80       1.0  T
   4   -517.8183372  0.275807E-03  0.259E-02    0.80       1.0  T
   5   -517.8186734 -0.336221E-03  0.691E-03    0.80       1.0  T
   6   -517.8187038 -0.304350E-04  0.197E-03    0.80       3.1  T
   7   -517.8187065 -0.267716E-05  0.765E-04    0.80       8.1  T
   8   -517.8187070 -0.469530E-06  0.329E-04    0.80      18.8  T
   9   -517.8187071 -0.788028E-07  0.138E-04    0.80      44.9  T
  10   -517.8187071 -0.557429E-08  0.561E-05    0.80     110.1  T
     SCC iter.                  ...        0 min,  4.133 sec
     gradient                   ...        0 min,  0.664 sec
 * total energy  :  -510.0710465 Eh     change       -0.1048405E+00 Eh
   gradient norm :     0.1462262 Eh/α   predicted    -0.1037544E+00 (  -1.04%)
   displ. norm   :     0.8776241 α      lambda       -0.9663755E-01
   maximum displ.:     0.3618766 α      in ANC's #214, #152, #196, ...

........................................................................
.............................. CYCLE    7 ..............................
........................................................................
   1   -517.8027590 -0.517803E+03  0.648E-02    0.82       0.0  T
   2   -517.8029538 -0.194821E-03  0.662E-02    0.82       1.0  T
   3   -517.8038637 -0.909954E-03  0.285E-02    0.82       1.0  T
   4   -517.8034008  0.462987E-03  0.282E-02    0.82       1.0  T
   5   -517.8038766 -0.475877E-03  0.551E-03    0.82       1.1  T
   6   -517.8038958 -0.191804E-04  0.121E-03    0.82       5.1  T
   7   -517.8038966 -0.772912E-06  0.590E-04    0.82      10.5  T
   8   -517.8038969 -0.284947E-06  0.253E-04    0.82      24.4  T
   9   -517.8038969 -0.531917E-07  0.877E-05    0.82      70.4  T
  10   -517.8038969 -0.329737E-08  0.347E-05    0.82     177.8  T
     SCC iter.                  ...        0 min,  4.006 sec
     gradient                   ...        0 min,  0.675 sec
 * total energy  :  -510.1482721 Eh     change       -0.7722565E-01 Eh
   gradient norm :     0.1061265 Eh/α   predicted    -0.8553518E-01 (  10.76%)
   displ. norm   :     0.7992558 α      lambda       -0.5900742E-01
   maximum displ.:     0.2544344 α      in ANC's #214, #152, #59, ...

........................................................................
.............................. CYCLE    8 ..............................
........................................................................
   1   -517.7917820 -0.517792E+03  0.386E-02    0.81       0.0  T
   2   -517.7917363  0.456611E-04  0.418E-02    0.81       1.0  T
   3   -517.7922686 -0.532290E-03  0.165E-02    0.81       1.0  T
   4   -517.7920843  0.184327E-03  0.171E-02    0.81       1.0  T
   5   -517.7922771 -0.192819E-03  0.334E-03    0.81       1.8  T
   6   -517.7922810 -0.386419E-05  0.690E-04    0.81       9.0  T
   7   -517.7922812 -0.187931E-06  0.367E-04    0.81      16.8  T
   8   -517.7922813 -0.104636E-06  0.158E-04    0.81      39.1  T
   9   -517.7922813 -0.227180E-07  0.580E-05    0.81     106.4  T
     SCC iter.                  ...        0 min,  3.730 sec
     gradient                   ...        0 min,  0.678 sec
 * total energy  :  -510.1931072 Eh     change       -0.4483511E-01 Eh
   gradient norm :     0.1021092 Eh/α   predicted    -0.4835098E-01 (   7.84%)
   displ. norm   :     0.7519275 α      lambda       -0.4278247E-01
   maximum displ.:     0.2493728 α      in ANC's #60, #59, #152, ...

........................................................................
.............................. CYCLE    9 ..............................
........................................................................
   1   -517.8221196 -0.517822E+03  0.262E-02    0.83       0.0  T
   2   -517.8221946 -0.749695E-04  0.210E-02    0.83       1.0  T
   3   -517.8223555 -0.160923E-03  0.926E-03    0.83       1.0  T
   4   -517.8223497  0.576387E-05  0.852E-03    0.83       1.0  T
   5   -517.8223876 -0.378908E-04  0.233E-03    0.83       2.6  T
   6   -517.8223890 -0.139188E-05  0.764E-04    0.83       8.1  T
   7   -517.8223893 -0.312635E-06  0.353E-04    0.83      17.5  T
   8   -517.8223894 -0.951777E-07  0.153E-04    0.83      40.3  T
   9   -517.8223894 -0.161897E-07  0.505E-05    0.83     122.4  T
     SCC iter.                  ...        0 min,  3.662 sec
     gradient                   ...        0 min,  0.685 sec
 * total energy  :  -510.2260796 Eh     change       -0.3297234E-01 Eh
   gradient norm :     0.0806817 Eh/α   predicted    -0.3348573E-01 (   1.56%)
   displ. norm   :     0.7993643 α      lambda       -0.3056603E-01
   maximum displ.:     0.3284115 α      in ANC's #60, #59, #88, ...

........................................................................
.............................. CYCLE   10 ..............................
........................................................................
   1   -517.8574422 -0.517857E+03  0.236E-02    0.84       0.0  T
   2   -517.8574662 -0.240490E-04  0.193E-02    0.84       1.0  T
   3   -517.8576023 -0.136028E-03  0.726E-03    0.84       1.0  T
   4   -517.8575889  0.133527E-04  0.767E-03    0.84       1.0  T
   5   -517.8576230 -0.341077E-04  0.194E-03    0.84       3.2  T
   6   -517.8576238 -0.823625E-06  0.583E-04    0.84      10.6  T
   7   -517.8576240 -0.203265E-06  0.222E-04    0.84      27.8  T
   8   -517.8576241 -0.457525E-07  0.718E-05    0.84      86.0  T
   9   -517.8576241 -0.289197E-08  0.273E-05    0.84     226.1  T
     SCC iter.                  ...        0 min,  3.548 sec
     gradient                   ...        0 min,  0.675 sec
 * total energy  :  -510.2504467 Eh     change       -0.2436715E-01 Eh
   gradient norm :     0.0504787 Eh/α   predicted    -0.2504866E-01 (   2.80%)
   displ. norm   :     0.8169777 α      lambda       -0.2210791E-01
   maximum displ.:     0.3674404 α      in ANC's #59, #60, #88, ...

........................................................................
.............................. CYCLE   11 ..............................
........................................................................
   1   -517.8902594 -0.517890E+03  0.179E-02    0.85       0.0  T
   2   -517.8902900 -0.305994E-04  0.140E-02    0.85       1.0  T
   3   -517.8903288 -0.388472E-04  0.618E-03    0.85       1.0  T
   4   -517.8903114  0.174068E-04  0.604E-03    0.85       1.0  T
   5   -517.8903347 -0.232872E-04  0.146E-03    0.85       4.2  T
   6   -517.8903359 -0.114617E-05  0.403E-04    0.85      15.3  T
   7   -517.8903360 -0.103045E-06  0.170E-04    0.85      36.3  T
   8   -517.8903360 -0.266432E-07  0.593E-05    0.85     104.1  T
     SCC iter.                  ...        0 min,  3.335 sec
     gradient                   ...        0 min,  0.684 sec
 * total energy  :  -510.2682611 Eh     change       -0.1781442E-01 Eh
   gradient norm :     0.0457326 Eh/α   predicted    -0.1843195E-01 (   3.47%)
   displ. norm   :     0.8308633 α      lambda       -0.1853513E-01
   maximum displ.:     0.4155990 α      in ANC's #60, #59, #88, ...

........................................................................
.............................. CYCLE   12 ..............................
........................................................................
   1   -517.9244151 -0.517924E+03  0.206E-02    0.87       0.0  T
   2   -517.9244679 -0.527676E-04  0.178E-02    0.87       1.0  T
   3   -517.9245426 -0.746829E-04  0.718E-03    0.87       1.0  T
   4   -517.9245179  0.247074E-04  0.699E-03    0.87       1.0  T
   5   -517.9245458 -0.279787E-04  0.193E-03    0.87       3.2  T
   6   -517.9245478 -0.197874E-05  0.438E-04    0.87      14.1  T
   7   -517.9245479 -0.892658E-07  0.203E-04    0.87      30.4  T
   8   -517.9245479 -0.375957E-07  0.737E-05    0.87      83.9  T
   9   -517.9245479 -0.384091E-08  0.260E-05    0.87     237.4  T
     SCC iter.                  ...        0 min,  3.682 sec
     gradient                   ...        0 min,  0.676 sec
 * total energy  :  -510.2814822 Eh     change       -0.1322101E-01 Eh
   gradient norm :     0.0459861 Eh/α   predicted    -0.1566531E-01 (  18.49%)
   displ. norm   :     0.7720046 α      lambda       -0.1394059E-01
   maximum displ.:     0.4110219 α      in ANC's #60, #59, #88, ...

........................................................................
.............................. CYCLE   13 ..............................
........................................................................
   1   -517.9442084 -0.517944E+03  0.141E-02    0.87       0.0  T
   2   -517.9442297 -0.212522E-04  0.116E-02    0.87       1.0  T
   3   -517.9442591 -0.294116E-04  0.478E-03    0.87       1.3  T
   4   -517.9442495  0.952610E-05  0.436E-03    0.87       1.4  T
   5   -517.9442606 -0.110350E-04  0.119E-03    0.87       5.2  T
   6   -517.9442618 -0.117428E-05  0.243E-04    0.87      25.4  T
   7   -517.9442618 -0.343210E-07  0.108E-04    0.87      57.2  T
   8   -517.9442618 -0.917464E-08  0.408E-05    0.87     151.3  T
     SCC iter.                  ...        0 min,  3.147 sec
     gradient                   ...        0 min,  0.674 sec
 * total energy  :  -510.2927399 Eh     change       -0.1125777E-01 Eh
   gradient norm :     0.0297173 Eh/α   predicted    -0.1112452E-01 (  -1.18%)
   displ. norm   :     0.8143245 α      lambda       -0.1054866E-01
   maximum displ.:     0.4354881 α      in ANC's #59, #60, #54, ...

........................................................................
.............................. CYCLE   14 ..............................
........................................................................
   1   -517.9620696 -0.517962E+03  0.106E-02    0.87       0.0  T
   2   -517.9620820 -0.123729E-04  0.710E-03    0.87       1.0  T
   3   -517.9620935 -0.114727E-04  0.323E-03    0.87       1.9  T
   4   -517.9620923  0.112381E-05  0.276E-03    0.87       2.2  T
   5   -517.9620962 -0.385052E-05  0.820E-04    0.87       7.5  T
   6   -517.9620969 -0.687337E-06  0.225E-04    0.87      27.4  T
   7   -517.9620969 -0.348125E-07  0.846E-05    0.87      73.0  T
   8   -517.9620969 -0.539706E-08  0.333E-05    0.87     185.3  T
     SCC iter.                  ...        0 min,  3.266 sec
     gradient                   ...        0 min,  0.686 sec
 * total energy  :  -510.3013468 Eh     change       -0.8606848E-02 Eh
   gradient norm :     0.0321778 Eh/α   predicted    -0.8771868E-02 (   1.92%)
   displ. norm   :     0.8653189 α      lambda       -0.1052007E-01
   maximum displ.:     0.5569101 α      in ANC's #60, #59, #54, ...

........................................................................
.............................. CYCLE   15 ..............................
........................................................................
   1   -517.9794424 -0.517979E+03  0.101E-02    0.88       0.0  T
   2   -517.9794547 -0.122476E-04  0.712E-03    0.88       1.0  T
   3   -517.9794686 -0.138679E-04  0.284E-03    0.88       2.2  T
   4   -517.9794675  0.103107E-05  0.278E-03    0.88       2.2  T
   5   -517.9794716 -0.403075E-05  0.788E-04    0.88       7.8  T
   6   -517.9794719 -0.370924E-06  0.217E-04    0.88      28.5  T
   7   -517.9794720 -0.303057E-07  0.860E-05    0.88      71.8  T
   8   -517.9794720 -0.561931E-08  0.340E-05    0.88     181.7  T
     SCC iter.                  ...        0 min,  3.387 sec
     gradient                   ...        0 min,  0.664 sec
 * total energy  :  -510.3081566 Eh     change       -0.6809844E-02 Eh
   gradient norm :     0.0312515 Eh/α   predicted    -0.9198629E-02 (  35.08%)
   displ. norm   :     0.7247049 α      lambda       -0.7763905E-02
   maximum displ.:     0.3815001 α      in ANC's #60, #59, #54, ...

........................................................................
.............................. CYCLE   16 ..............................
........................................................................
   1   -518.0001075 -0.518000E+03  0.897E-03    0.88       0.0  T
   2   -518.0001157 -0.827937E-05  0.593E-03    0.88       1.0  T
   3   -518.0001223 -0.659622E-05  0.307E-03    0.88       2.0  T
   4   -518.0001220  0.388283E-06  0.245E-03    0.88       2.5  T
   5   -518.0001255 -0.349475E-05  0.566E-04    0.88      10.9  T
   6   -518.0001257 -0.260815E-06  0.249E-04    0.88      24.8  T
   7   -518.0001258 -0.522497E-07  0.827E-05    0.88      74.7  T
   8   -518.0001258 -0.478894E-08  0.326E-05    0.88     189.5  T
     SCC iter.                  ...        0 min,  3.157 sec
     gradient                   ...        0 min,  0.676 sec
 * total energy  :  -510.3140655 Eh     change       -0.5908931E-02 Eh
   gradient norm :     0.0256640 Eh/α   predicted    -0.5920751E-02 (   0.20%)
   displ. norm   :     0.7638735 α      lambda       -0.5784748E-02
   maximum displ.:     0.4014993 α      in ANC's #60, #59, #54, ...

........................................................................
.............................. CYCLE   17 ..............................
........................................................................
   1   -518.0120442 -0.518012E+03  0.782E-03    0.88       0.0  T
   2   -518.0120485 -0.430219E-05  0.603E-03    0.88       1.0  T
   3   -518.0120589 -0.103317E-04  0.245E-03    0.88       2.5  T
   4   -518.0120573  0.152947E-05  0.223E-03    0.88       2.8  T
   5   -518.0120602 -0.281823E-05  0.599E-04    0.88      10.3  T
   6   -518.0120605 -0.377981E-06  0.195E-04    0.88      31.8  T
   7   -518.0120606 -0.247969E-07  0.735E-05    0.88      84.0  T
     SCC iter.                  ...        0 min,  2.786 sec
     gradient                   ...        0 min,  0.679 sec
 * total energy  :  -510.3179159 Eh     change       -0.3850342E-02 Eh
   gradient norm :     0.0255881 Eh/α   predicted    -0.4580089E-02 (  18.95%)
   displ. norm   :     0.7332650 α      lambda       -0.5274334E-02
   maximum displ.:     0.3758935 α      in ANC's #60, #59, #54, ...

........................................................................
.............................. CYCLE   18 ..............................
........................................................................
   1   -518.0221560 -0.518022E+03  0.782E-03    0.88       0.0  T
   2   -518.0221616 -0.559883E-05  0.611E-03    0.88       1.0  T
   3   -518.0221725 -0.108294E-04  0.243E-03    0.88       2.5  T
   4   -518.0221703  0.218134E-05  0.238E-03    0.88       2.6  T
   5   -518.0221738 -0.350650E-05  0.596E-04    0.88      10.4  T
   6   -518.0221740 -0.269873E-06  0.194E-04    0.88      31.9  T
   7   -518.0221741 -0.279656E-07  0.707E-05    0.88      87.4  T
     SCC iter.                  ...        0 min,  2.943 sec
     gradient                   ...        0 min,  0.681 sec
 * total energy  :  -510.3210278 Eh     change       -0.3111903E-02 Eh
   gradient norm :     0.0282822 Eh/α   predicted    -0.4055115E-02 (  30.31%)
   displ. norm   :     0.6327083 α      lambda       -0.3676483E-02
   maximum displ.:     0.3726269 α      in ANC's #60, #59, #54, ...

........................................................................
.............................. CYCLE   19 ..............................
........................................................................
   1   -518.0275303 -0.518028E+03  0.737E-03    0.88       0.0  T
   2   -518.0275369 -0.654875E-05  0.571E-03    0.88       1.1  T
   3   -518.0275453 -0.843420E-05  0.230E-03    0.88       2.7  T
   4   -518.0275435  0.183647E-05  0.207E-03    0.88       3.0  T
   5   -518.0275460 -0.255327E-05  0.461E-04    0.88      13.4  T
   6   -518.0275462 -0.157348E-06  0.179E-04    0.88      34.5  T
   7   -518.0275462 -0.257456E-07  0.448E-05    0.88     137.9  T
     SCC iter.                  ...        0 min,  2.789 sec
     gradient                   ...        0 min,  0.685 sec
 * total energy  :  -510.3232330 Eh     change       -0.2205206E-02 Eh
   gradient norm :     0.0262097 Eh/α   predicted    -0.2574129E-02 (  16.73%)
   displ. norm   :     0.6236591 α      lambda       -0.2940826E-02
   maximum displ.:     0.2673938 α      in ANC's #60, #54, #59, ...

........................................................................
.............................. CYCLE   20 ..............................
........................................................................
   1   -518.0290469 -0.518029E+03  0.520E-03    0.88       0.0  T
   2   -518.0290510 -0.404512E-05  0.419E-03    0.88       1.5  T
   3   -518.0290569 -0.591409E-05  0.151E-03    0.88       4.1  T
   4   -518.0290560  0.832683E-06  0.161E-03    0.88       3.8  T
   5   -518.0290575 -0.149609E-05  0.452E-04    0.88      13.7  T
   6   -518.0290576 -0.721850E-07  0.119E-04    0.88      51.7  T
   7   -518.0290576 -0.881550E-08  0.509E-05    0.88     121.3  T
     SCC iter.                  ...        0 min,  2.811 sec
     gradient                   ...        0 min,  0.675 sec
 * total energy  :  -510.3245581 Eh     change       -0.1325131E-02 Eh
   gradient norm :     0.0240739 Eh/α   predicted    -0.2042333E-02 (  54.12%)
   displ. norm   :     0.5386099 α      lambda       -0.3017060E-02
   maximum displ.:     0.2316234 α      in ANC's #54, #59, #60, ...
 * RMSD in coord.:     0.6452617 α      energy gain  -0.2758982E+01 Eh

generating ANC from model Hessian ...
Using Lindh-Hessian (1995)
 Shifting diagonal of input Hessian by    1.0022579254240426E-002
 Lowest  eigenvalues of input Hessian
    0.010000    0.010003    0.010007    0.010009    0.010013    0.010014
    0.010015    0.010016    0.010016    0.000000    0.000000    0.000000
    0.000000    0.000000    0.000000    0.010026    0.010030    0.010034
 Highest eigenvalues
    2.833219    2.835294    2.837167    3.059189    3.066687    3.070942


........................................................................
.............................. CYCLE   21 ..............................
........................................................................
   1   -518.0342609 -0.518034E+03  0.567E-03    0.89       0.0  T
   2   -518.0342649 -0.400628E-05  0.519E-03    0.89       1.2  T
   3   -518.0342710 -0.608596E-05  0.212E-03    0.89       2.9  T
   4   -518.0342688  0.220690E-05  0.211E-03    0.89       2.9  T
   5   -518.0342711 -0.230688E-05  0.600E-04    0.89      10.3  T
   6   -518.0342713 -0.241396E-06  0.135E-04    0.89      45.7  T
   7   -518.0342713 -0.958755E-08  0.563E-05    0.89     109.8  T
     SCC iter.                  ...        0 min,  2.932 sec
     gradient                   ...        0 min,  0.687 sec
 * total energy  :  -510.3259755 Eh     change       -0.1417370E-02 Eh
   gradient norm :     0.0280621 Eh/α   predicted     0.0000000E+00 (-100.00%)
   displ. norm   :     0.2444772 α      lambda       -0.1562732E-02
   maximum displ.:     0.0864316 α      in ANC's #53, #54, #34, ...

........................................................................
.............................. CYCLE   22 ..............................
........................................................................
   1   -518.0308609 -0.518031E+03  0.416E-03    0.89       0.0  T
   2   -518.0308638 -0.295208E-05  0.386E-03    0.89       1.6  T
   3   -518.0308668 -0.297508E-05  0.166E-03    0.89       3.7  T
   4   -518.0308654  0.142104E-05  0.153E-03    0.89       4.0  T
   5   -518.0308668 -0.141852E-05  0.479E-04    0.89      12.9  T
   6   -518.0308669 -0.139200E-06  0.106E-04    0.89      58.4  T
   7   -518.0308670 -0.509203E-08  0.270E-05    0.89     229.0  T
     SCC iter.                  ...        0 min,  2.962 sec
     gradient                   ...        0 min,  0.652 sec
 * total energy  :  -510.3267407 Eh     change       -0.7651785E-03 Eh
   gradient norm :     0.0110499 Eh/α   predicted    -0.8284291E-03 (   8.27%)
   displ. norm   :     0.4261072 α      lambda       -0.1893673E-02
   maximum displ.:     0.1619214 α      in ANC's #53, #54, #59, ...

........................................................................
.............................. CYCLE   23 ..............................
........................................................................
   1   -518.0255794 -0.518026E+03  0.554E-03    0.88       0.0  T
   2   -518.0255843 -0.495412E-05  0.479E-03    0.88       1.3  T
   3   -518.0255890 -0.464995E-05  0.198E-03    0.88       3.1  T
   4   -518.0255868  0.219258E-05  0.204E-03    0.88       3.0  T
   5   -518.0255892 -0.240437E-05  0.577E-04    0.88      10.7  T
   6   -518.0255893 -0.175913E-06  0.130E-04    0.88      47.6  T
   7   -518.0255894 -0.878208E-08  0.468E-05    0.88     132.1  T
     SCC iter.                  ...        0 min,  2.787 sec
     gradient                   ...        0 min,  0.672 sec
 * total energy  :  -510.3271090 Eh     change       -0.3683209E-03 Eh
   gradient norm :     0.0324864 Eh/α   predicted    -0.1118751E-02 ( 203.74%)
   displ. norm   :     0.2729362 α      lambda       -0.1696589E-02
   maximum displ.:     0.0988390 α      in ANC's #53, #54, #34, ...

........................................................................
.............................. CYCLE   24 ..............................
........................................................................
   1   -518.0247990 -0.518025E+03  0.208E-03    0.88       0.0  T
   2   -518.0247998 -0.815505E-06  0.181E-03    0.88       3.4  T
   3   -518.0248004 -0.594653E-06  0.803E-04    0.88       7.7  T
   4   -518.0248003  0.122213E-06  0.550E-04    0.88      11.2  T
   5   -518.0248004 -0.799706E-07  0.273E-04    0.88      22.6  T
   6   -518.0248004 -0.610354E-07  0.570E-05    0.88     108.4  T
   7   -518.0248004 -0.171110E-08  0.189E-05    0.88     327.4  T
     SCC iter.                  ...        0 min,  2.854 sec
     gradient                   ...        0 min,  0.671 sec
 * total energy  :  -510.3280376 Eh     change       -0.9286487E-03 Eh
   gradient norm :     0.0188636 Eh/α   predicted    -0.9114918E-03 (  -1.85%)
   displ. norm   :     0.4059571 α      lambda       -0.1937163E-02
   maximum displ.:     0.1549337 α      in ANC's #53, #54, #20, ...

........................................................................
.............................. CYCLE   25 ..............................
........................................................................
   1   -518.0224123 -0.518022E+03  0.451E-03    0.89       0.0  T
   2   -518.0224153 -0.295654E-05  0.419E-03    0.89       1.5  T
   3   -518.0224194 -0.409571E-05  0.178E-03    0.89       3.5  T
   4   -518.0224181  0.129172E-05  0.160E-03    0.89       3.9  T
   5   -518.0224195 -0.137088E-05  0.492E-04    0.89      12.6  T
   6   -518.0224196 -0.125368E-06  0.142E-04    0.89      43.5  T
   7   -518.0224196 -0.135861E-07  0.467E-05    0.89     132.2  T
     SCC iter.                  ...        0 min,  2.780 sec
     gradient                   ...        0 min,  0.700 sec
 * total energy  :  -510.3286899 Eh     change       -0.6522455E-03 Eh
   gradient norm :     0.0227561 Eh/α   predicted    -0.1128206E-02 (  72.97%)
   displ. norm   :     0.4233052 α      lambda       -0.1350671E-02
   maximum displ.:     0.1792598 α      in ANC's #53, #54, #34, ...

........................................................................
.............................. CYCLE   26 ..............................
........................................................................
   1   -518.0181565 -0.518018E+03  0.192E-03    0.89       0.0  T
   2   -518.0181572 -0.639827E-06  0.132E-03    0.89       4.7  T
   3   -518.0181575 -0.344159E-06  0.638E-04    0.89       9.7  T
   4   -518.0181574  0.516710E-07  0.536E-04    0.89      11.5  T
   5   -518.0181576 -0.145766E-06  0.180E-04    0.89      34.3  T
   6   -518.0181576 -0.231723E-07  0.588E-05    0.89     105.1  T
     SCC iter.                  ...        0 min,  1.891 sec
     gradient                   ...        0 min,  0.650 sec
 * total energy  :  -510.3296849 Eh     change       -0.9949607E-03 Eh
   gradient norm :     0.0142429 Eh/α   predicted    -0.7963490E-03 ( -19.96%)
   displ. norm   :     0.6638239 α      lambda       -0.1897253E-02
   maximum displ.:     0.2743921 α      in ANC's #53, #54, #20, ...

........................................................................
.............................. CYCLE   27 ..............................
........................................................................
   1   -518.0083647 -0.518008E+03  0.368E-03    0.89       0.0  T
   2   -518.0083674 -0.261121E-05  0.281E-03    0.89       2.2  T
   3   -518.0083689 -0.152441E-05  0.132E-03    0.89       4.7  T
   4   -518.0083685  0.386907E-06  0.106E-03    0.89       5.8  T
   5   -518.0083690 -0.515634E-06  0.384E-04    0.89      16.1  T
   6   -518.0083691 -0.122634E-06  0.109E-04    0.89      56.6  T
   7   -518.0083691 -0.709349E-08  0.380E-05    0.89     162.4  T
     SCC iter.                  ...        0 min,  2.139 sec
     gradient                   ...        0 min,  0.656 sec
 * total energy  :  -510.3301754 Eh     change       -0.4905191E-03 Eh
   gradient norm :     0.0200465 Eh/α   predicted    -0.1366653E-02 ( 178.61%)
   displ. norm   :     0.4472974 α      lambda       -0.1741508E-02
   maximum displ.:     0.1734451 α      in ANC's #53, #20, #54, ...

........................................................................
.............................. CYCLE   28 ..............................
........................................................................
   1   -518.0062997 -0.518006E+03  0.218E-03    0.89       0.0  T
   2   -518.0063004 -0.720147E-06  0.181E-03    0.89       3.4  T
   3   -518.0063011 -0.732793E-06  0.736E-04    0.89       8.4  T
   4   -518.0063009  0.240496E-06  0.710E-04    0.89       8.7  T
   5   -518.0063012 -0.294753E-06  0.204E-04    0.89      30.2  T
   6   -518.0063012 -0.226455E-07  0.549E-05    0.89     112.6  T
   7   -518.0063012 -0.156263E-08  0.275E-05    0.89     224.8  T
     SCC iter.                  ...        0 min,  2.151 sec
     gradient                   ...        0 min,  0.668 sec
 * total energy  :  -510.3312365 Eh     change       -0.1061084E-02 Eh
   gradient norm :     0.0131456 Eh/α   predicted    -0.1044973E-02 (  -1.52%)
   displ. norm   :     0.5289256 α      lambda       -0.1284575E-02
   maximum displ.:     0.2049965 α      in ANC's #53, #20, #54, ...

........................................................................
.............................. CYCLE   29 ..............................
........................................................................
   1   -518.0030341 -0.518003E+03  0.397E-03    0.89       0.0  T
   2   -518.0030392 -0.518293E-05  0.269E-03    0.89       2.3  T
   3   -518.0030410 -0.172400E-05  0.111E-03    0.89       5.6  T
   4   -518.0030406  0.364972E-06  0.105E-03    0.89       5.9  T
   5   -518.0030412 -0.568310E-06  0.307E-04    0.89      20.1  T
   6   -518.0030412 -0.443853E-07  0.979E-05    0.89      63.1  T
   7   -518.0030412 -0.494708E-08  0.385E-05    0.89     160.3  T
     SCC iter.                  ...        0 min,  2.237 sec
     gradient                   ...        0 min,  0.676 sec
 * total energy  :  -510.3314841 Eh     change       -0.2476328E-03 Eh
   gradient norm :     0.0161225 Eh/α   predicted    -0.8219753E-03 ( 231.93%)
   displ. norm   :     0.4205482 α      lambda       -0.1293898E-02
   maximum displ.:     0.1523604 α      in ANC's #53, #20, #54, ...

........................................................................
.............................. CYCLE   30 ..............................
........................................................................
   1   -518.0006824 -0.518001E+03  0.182E-03    0.89       0.0  T
   2   -518.0006832 -0.787343E-06  0.124E-03    0.89       5.0  T
   3   -518.0006836 -0.393108E-06  0.529E-04    0.89      11.7  T
   4   -518.0006835  0.758664E-07  0.476E-04    0.89      13.0  T
   5   -518.0006837 -0.137411E-06  0.159E-04    0.89      38.8  T
   6   -518.0006837 -0.131155E-07  0.473E-05    0.89     130.6  T
     SCC iter.                  ...        0 min,  1.917 sec
     gradient                   ...        0 min,  0.679 sec
 * total energy  :  -510.3322018 Eh     change       -0.7176822E-03 Eh
   gradient norm :     0.0093983 Eh/α   predicted    -0.7613698E-03 (   6.09%)
   displ. norm   :     0.4409972 α      lambda       -0.1070628E-02
   maximum displ.:     0.1648155 α      in ANC's #20, #53, #23, ...

........................................................................
.............................. CYCLE   31 ..............................
........................................................................
   1   -517.9996959 -0.518000E+03  0.539E-03    0.89       0.0  T
   2   -517.9997069 -0.110223E-04  0.327E-03    0.89       1.9  T
   3   -517.9997100 -0.312932E-05  0.128E-03    0.89       4.8  T
   4   -517.9997098  0.228826E-06  0.114E-03    0.89       5.4  T
   5   -517.9997105 -0.743407E-06  0.350E-04    0.89      17.7  T
   6   -517.9997106 -0.159630E-07  0.118E-04    0.89      52.5  T
   7   -517.9997106 -0.829414E-08  0.531E-05    0.89     116.3  T
     SCC iter.                  ...        0 min,  2.107 sec
     gradient                   ...        0 min,  0.673 sec
 * total energy  :  -510.3322366 Eh     change       -0.3487540E-04 Eh
   gradient norm :     0.0190482 Eh/α   predicted    -0.6394250E-03 (1733.46%)
   displ. norm   :     0.2858354 α      lambda       -0.1014187E-02
   maximum displ.:     0.1103832 α      in ANC's #20, #23, #53, ...

........................................................................
.............................. CYCLE   32 ..............................
........................................................................
   1   -517.9992035 -0.517999E+03  0.370E-03    0.89       0.0  T
   2   -517.9992088 -0.529359E-05  0.210E-03    0.89       2.9  T
   3   -517.9992099 -0.110802E-05  0.790E-04    0.89       7.8  T
   4   -517.9992097  0.159686E-06  0.699E-04    0.89       8.8  T
   5   -517.9992100 -0.265553E-06  0.248E-04    0.89      25.0  T
   6   -517.9992100 -0.172760E-07  0.634E-05    0.89      97.4  T
   7   -517.9992100 -0.139312E-08  0.245E-05    0.89     252.3  T
     SCC iter.                  ...        0 min,  2.121 sec
     gradient                   ...        0 min,  0.668 sec
 * total energy  :  -510.3328654 Eh     change       -0.6287396E-03 Eh
   gradient norm :     0.0048704 Eh/α   predicted    -0.5485322E-03 ( -12.76%)
   displ. norm   :     0.4320136 α      lambda       -0.3444241E-03
   maximum displ.:     0.1826207 α      in ANC's #20, #23, #29, ...

........................................................................
.............................. CYCLE   33 ..............................
........................................................................
   1   -517.9990084 -0.517999E+03  0.147E-03    0.90       0.0  T
   2   -517.9990089 -0.500407E-06  0.843E-04    0.90       7.3  T
   3   -517.9990091 -0.157231E-06  0.406E-04    0.90      15.2  T
   4   -517.9990091  0.153783E-07  0.368E-04    0.90      16.8  T
   5   -517.9990091 -0.851427E-07  0.995E-05    0.90      62.1  T
   6   -517.9990091 -0.514660E-08  0.421E-05    0.90     146.8  T
     SCC iter.                  ...        0 min,  1.820 sec
     gradient                   ...        0 min,  0.666 sec
 * total energy  :  -510.3331344 Eh     change       -0.2690012E-03 Eh
   gradient norm :     0.0044644 Eh/α   predicted    -0.2043542E-03 ( -24.03%)
   displ. norm   :     0.4973783 α      lambda       -0.3973141E-03
   maximum displ.:     0.2213854 α      in ANC's #20, #23, #29, ...

........................................................................
.............................. CYCLE   34 ..............................
........................................................................
   1   -518.0038889 -0.518004E+03  0.231E-03    0.90       0.0  T
   2   -518.0038898 -0.949255E-06  0.126E-03    0.90       4.9  T
   3   -518.0038902 -0.321875E-06  0.657E-04    0.90       9.4  T
   4   -518.0038902 -0.123847E-07  0.533E-04    0.90      11.6  T
   5   -518.0038903 -0.156244E-06  0.151E-04    0.90      40.9  T
   6   -518.0038903 -0.154752E-07  0.598E-05    0.90     103.2  T
     SCC iter.                  ...        0 min,  1.915 sec
     gradient                   ...        0 min,  0.673 sec
 * total energy  :  -510.3334094 Eh     change       -0.2750039E-03 Eh
   gradient norm :     0.0062827 Eh/α   predicted    -0.2478039E-03 (  -9.89%)
   displ. norm   :     0.5128698 α      lambda       -0.4254230E-03
   maximum displ.:     0.2410881 α      in ANC's #20, #23, #29, ...

........................................................................
.............................. CYCLE   35 ..............................
........................................................................
   1   -518.0070605 -0.518007E+03  0.190E-03    0.90       0.0  T
   2   -518.0070612 -0.624368E-06  0.986E-04    0.90       6.3  T
   3   -518.0070614 -0.199339E-06  0.553E-04    0.90      11.2  T
   4   -518.0070614 -0.257545E-07  0.414E-04    0.90      14.9  T
   5   -518.0070615 -0.991613E-07  0.118E-04    0.90      52.2  T
   6   -518.0070615 -0.871626E-08  0.431E-05    0.90     143.5  T
     SCC iter.                  ...        0 min,  1.907 sec
     gradient                   ...        0 min,  0.639 sec
 * total energy  :  -510.3336727 Eh     change       -0.2633003E-03 Eh
   gradient norm :     0.0067970 Eh/α   predicted    -0.2686647E-03 (   2.04%)
   displ. norm   :     0.4451828 α      lambda       -0.3550826E-03
   maximum displ.:     0.2056656 α      in ANC's #20, #23, #29, ...

........................................................................
.............................. CYCLE   36 ..............................
........................................................................
   1   -518.0006968 -0.518001E+03  0.228E-03    0.90       0.0  T
   2   -518.0006980 -0.124469E-05  0.115E-03    0.90       5.4  T
   3   -518.0006982 -0.199820E-06  0.592E-04    0.90      10.4  T
   4   -518.0006981  0.115811E-06  0.457E-04    0.90      13.5  T
   5   -518.0006983 -0.152656E-06  0.185E-04    0.90      33.4  T
   6   -518.0006983 -0.192280E-07  0.508E-05    0.90     121.6  T
     SCC iter.                  ...        0 min,  1.858 sec
     gradient                   ...        0 min,  0.653 sec
 * total energy  :  -510.3339147 Eh     change       -0.2420504E-03 Eh
   gradient norm :     0.0058006 Eh/α   predicted    -0.2127296E-03 ( -12.11%)
   displ. norm   :     0.4463781 α      lambda       -0.3301280E-03
   maximum displ.:     0.2141064 α      in ANC's #20, #23, #29, ...

........................................................................
.............................. CYCLE   37 ..............................
........................................................................
   1   -517.9940590 -0.517994E+03  0.255E-03    0.90       0.0  T
   2   -517.9940609 -0.188891E-05  0.136E-03    0.90       4.6  T
   3   -517.9940613 -0.360878E-06  0.639E-04    0.90       9.7  T
   4   -517.9940611  0.166077E-06  0.546E-04    0.90      11.3  T
   5   -517.9940613 -0.219450E-06  0.187E-04    0.90      33.0  T
   6   -517.9940613 -0.175786E-07  0.548E-05    0.90     112.7  T
     SCC iter.                  ...        0 min,  1.835 sec
     gradient                   ...        0 min,  0.661 sec
 * total energy  :  -510.3341342 Eh     change       -0.2194213E-03 Eh
   gradient norm :     0.0059255 Eh/α   predicted    -0.1979549E-03 (  -9.78%)
   displ. norm   :     0.4423873 α      lambda       -0.3234090E-03
   maximum displ.:     0.1994104 α      in ANC's #20, #23, #54, ...

........................................................................
.............................. CYCLE   38 ..............................
........................................................................
   1   -517.9923786 -0.517992E+03  0.236E-03    0.90       0.0  T
   2   -517.9923804 -0.174335E-05  0.130E-03    0.90       4.7  T
   3   -517.9923808 -0.442117E-06  0.560E-04    0.90      11.0  T
   4   -517.9923808  0.624711E-07  0.500E-04    0.90      12.4  T
   5   -517.9923809 -0.159589E-06  0.175E-04    0.90      35.2  T
   6   -517.9923809 -0.104837E-07  0.648E-05    0.90      95.4  T
     SCC iter.                  ...        0 min,  1.905 sec
     gradient                   ...        0 min,  0.684 sec
 * total energy  :  -510.3343238 Eh     change       -0.1896251E-03 Eh
   gradient norm :     0.0062568 Eh/α   predicted    -0.1933542E-03 (   1.97%)
   displ. norm   :     0.3558512 α      lambda       -0.2222414E-03
   maximum displ.:     0.1586218 α      in ANC's #20, #23, #54, ...

........................................................................
.............................. CYCLE   39 ..............................
........................................................................
   1   -517.9945992 -0.517995E+03  0.190E-03    0.90       0.0  T
   2   -517.9946003 -0.103034E-05  0.106E-03    0.90       5.8  T
   3   -517.9946005 -0.267856E-06  0.490E-04    0.90      12.6  T
   4   -517.9946005  0.427212E-07  0.430E-04    0.90      14.4  T
   5   -517.9946006 -0.116419E-06  0.142E-04    0.90      43.4  T
   6   -517.9946006 -0.848775E-08  0.534E-05    0.90     115.6  T
     SCC iter.                  ...        0 min,  2.067 sec
     gradient                   ...        0 min,  0.677 sec
 * total energy  :  -510.3344704 Eh     change       -0.1465766E-03 Eh
   gradient norm :     0.0049256 Eh/α   predicted    -0.1251987E-03 ( -14.58%)
   displ. norm   :     0.3272591 α      lambda       -0.1608912E-03
   maximum displ.:     0.1575719 α      in ANC's #20, #23, #15, ...

........................................................................
.............................. CYCLE   40 ..............................
........................................................................
   1   -517.9934213 -0.517993E+03  0.222E-03    0.90       0.0  T
   2   -517.9934225 -0.121243E-05  0.120E-03    0.90       5.2  T
   3   -517.9934229 -0.348657E-06  0.604E-04    0.90      10.2  T
   4   -517.9934229 -0.318763E-07  0.486E-04    0.90      12.7  T
   5   -517.9934231 -0.149181E-06  0.157E-04    0.90      39.4  T
   6   -517.9934231 -0.530417E-08  0.694E-05    0.90      89.1  T
     SCC iter.                  ...        0 min,  1.954 sec
     gradient                   ...        0 min,  0.642 sec
 * total energy  :  -510.3345672 Eh     change       -0.9681131E-04 Eh
   gradient norm :     0.0047143 Eh/α   predicted    -0.8906218E-04 (  -8.00%)
   displ. norm   :     0.3222413 α      lambda       -0.1560951E-03
   maximum displ.:     0.1577491 α      in ANC's #20, #23, #15, ...

........................................................................
.............................. CYCLE   41 ..............................
........................................................................
   1   -517.9922676 -0.517992E+03  0.179E-03    0.90       0.0  T
   2   -517.9922685 -0.899110E-06  0.938E-04    0.90       6.6  T
   3   -517.9922688 -0.247297E-06  0.453E-04    0.90      13.6  T
   4   -517.9922688 -0.181900E-07  0.336E-04    0.90      18.4  T
   5   -517.9922688 -0.711210E-07  0.110E-04    0.90      56.4  T
   6   -517.9922688 -0.181262E-08  0.523E-05    0.90     118.1  T
     SCC iter.                  ...        0 min,  1.904 sec
     gradient                   ...        0 min,  0.655 sec
 * total energy  :  -510.3346544 Eh     change       -0.8718283E-04 Eh
   gradient norm :     0.0045675 Eh/α   predicted    -0.8615371E-04 (  -1.18%)
   displ. norm   :     0.2713617 α      lambda       -0.1257963E-03
   maximum displ.:     0.1320705 α      in ANC's #20, #23, #15, ...

........................................................................
.............................. CYCLE   42 ..............................
........................................................................
   1   -517.9932120 -0.517993E+03  0.157E-03    0.90       0.0  T
   2   -517.9932124 -0.379445E-06  0.712E-04    0.90       8.7  T
   3   -517.9932124 -0.318087E-07  0.465E-04    0.90      13.3  T
   4   -517.9932125 -0.616446E-07  0.301E-04    0.90      20.5  T
   5   -517.9932125 -0.513937E-07  0.121E-04    0.90      51.1  T
   6   -517.9932125 -0.565228E-08  0.434E-05    0.90     142.4  T
     SCC iter.                  ...        0 min,  1.862 sec
     gradient                   ...        0 min,  0.666 sec
 * total energy  :  -510.3347415 Eh     change       -0.8709632E-04 Eh
   gradient norm :     0.0043119 Eh/α   predicted    -0.6753290E-04 ( -22.46%)
   displ. norm   :     0.2973986 α      lambda       -0.1175661E-03
   maximum displ.:     0.1450823 α      in ANC's #20, #23, #15, ...
 * RMSD in coord.:     0.4605462 α      energy gain  -0.1018333E-01 Eh

generating ANC from model Hessian ...
Using Lindh-Hessian (1995)
 Shifting diagonal of input Hessian by    1.0022428366750977E-002
 Lowest  eigenvalues of input Hessian
    0.010000    0.010004    0.010006    0.010009    0.010010    0.010014
    0.010015    0.010017    0.010018    0.010019    0.000000    0.000000
    0.000000    0.000000    0.000000    0.000000    0.010029    0.010031
 Highest eigenvalues
    2.808666    2.808839    2.812336    3.033207    3.033446    3.037014


........................................................................
.............................. CYCLE   43 ..............................
........................................................................
   1   -517.9943705 -0.517994E+03  0.176E-03    0.90       0.0  T
   2   -517.9943715 -0.962970E-06  0.887E-04    0.90       7.0  T
   3   -517.9943717 -0.177822E-06  0.384E-04    0.90      16.1  T
   4   -517.9943716  0.525207E-07  0.326E-04    0.90      18.9  T
   5   -517.9943717 -0.745491E-07  0.128E-04    0.90      48.1  T
   6   -517.9943717 -0.731256E-08  0.400E-05    0.90     154.6  T
     SCC iter.                  ...        0 min,  2.039 sec
     gradient                   ...        0 min,  0.681 sec
 * total energy  :  -510.3348166 Eh     change       -0.7512108E-04 Eh
   gradient norm :     0.0045595 Eh/α   predicted     0.0000000E+00 (-100.00%)
   displ. norm   :     0.0441596 α      lambda       -0.3529866E-04
   maximum displ.:     0.0115191 α      in ANC's #66, #15, #18, ...

........................................................................
.............................. CYCLE   44 ..............................
........................................................................
   1   -517.9938586 -0.517994E+03  0.121E-03    0.90       0.0  T
   2   -517.9938590 -0.421196E-06  0.668E-04    0.90       9.2  T
   3   -517.9938592 -0.112044E-06  0.304E-04    0.90      20.3  T
   4   -517.9938591  0.236809E-07  0.267E-04    0.90      23.2  T
   5   -517.9938592 -0.540299E-07  0.820E-05    0.90      75.4  T
   6   -517.9938592 -0.165824E-08  0.323E-05    0.90     191.2  T
     SCC iter.                  ...        0 min,  2.059 sec
     gradient                   ...        0 min,  0.666 sec
 * total energy  :  -510.3348331 Eh     change       -0.1657275E-04 Eh
   gradient norm :     0.0034595 Eh/α   predicted    -0.3072749E-04 (  85.41%)
   displ. norm   :     0.0630645 α      lambda       -0.6628466E-04
   maximum displ.:     0.0170165 α      in ANC's #15, #43, #49, ...

........................................................................
.............................. CYCLE   45 ..............................
........................................................................
   1   -517.9934992 -0.517993E+03  0.139E-03    0.90       0.0  T
   2   -517.9934997 -0.588607E-06  0.757E-04    0.90       8.2  T
   3   -517.9934999 -0.140924E-06  0.334E-04    0.90      18.5  T
   4   -517.9934999  0.314622E-07  0.280E-04    0.90      22.1  T
   5   -517.9934999 -0.591195E-07  0.897E-05    0.90      68.9  T
   6   -517.9934999 -0.276214E-08  0.260E-05    0.90     237.6  T
     SCC iter.                  ...        0 min,  1.836 sec
     gradient                   ...        0 min,  0.670 sec
 * total energy  :  -510.3348551 Eh     change       -0.2192349E-04 Eh
   gradient norm :     0.0026608 Eh/α   predicted    -0.3327446E-04 (  51.78%)
   displ. norm   :     0.1021571 α      lambda       -0.1058913E-03
   maximum displ.:     0.0315740 α      in ANC's #15, #45, #18, ...

........................................................................
.............................. CYCLE   46 ..............................
........................................................................
   1   -517.9935130 -0.517994E+03  0.153E-03    0.90       0.0  T
   2   -517.9935137 -0.682129E-06  0.857E-04    0.90       7.2  T
   3   -517.9935140 -0.243569E-06  0.390E-04    0.90      15.8  T
   4   -517.9935140 -0.250521E-07  0.277E-04    0.90      22.3  T
   5   -517.9935140 -0.441377E-07  0.105E-04    0.90      59.1  T
   6   -517.9935140 -0.213527E-08  0.463E-05    0.90     133.4  T
     SCC iter.                  ...        0 min,  1.800 sec
     gradient                   ...        0 min,  0.662 sec
 * total energy  :  -510.3348366 Eh     change        0.1847580E-04 Eh
   gradient norm :     0.0063195 Eh/α   predicted    -0.5349828E-04 (-389.56%)
   displ. norm   :     0.0399214 α      lambda       -0.1164655E-03
   maximum displ.:     0.0175364 α      in ANC's #45, #46, #26, ...

........................................................................
.............................. CYCLE   47 ..............................
........................................................................
   1   -517.9945316 -0.517995E+03  0.129E-03    0.90       0.0  T
   2   -517.9945321 -0.491637E-06  0.684E-04    0.90       9.0  T
   3   -517.9945321 -0.890553E-07  0.312E-04    0.90      19.8  T
   4   -517.9945321  0.465927E-07  0.290E-04    0.90      21.3  T
   5   -517.9945322 -0.628460E-07  0.951E-05    0.90      65.0  T
   6   -517.9945322 -0.296779E-08  0.271E-05    0.90     228.3  T
     SCC iter.                  ...        0 min,  1.865 sec
     gradient                   ...        0 min,  0.688 sec
 * total energy  :  -510.3348969 Eh     change       -0.6026316E-04 Eh
   gradient norm :     0.0023308 Eh/α   predicted    -0.5832950E-04 (  -3.21%)
   displ. norm   :     0.0684767 α      lambda       -0.6926896E-04
   maximum displ.:     0.0313349 α      in ANC's #58, #15, #19, ...

........................................................................
.............................. CYCLE   48 ..............................
........................................................................
   1   -517.9951783 -0.517995E+03  0.109E-03    0.90       0.0  T
   2   -517.9951786 -0.355166E-06  0.623E-04    0.90       9.9  T
   3   -517.9951787 -0.827738E-07  0.287E-04    0.90      21.5  T
   4   -517.9951787  0.308719E-07  0.267E-04    0.90      23.1  T
   5   -517.9951787 -0.506819E-07  0.841E-05    0.90      73.4  T
   6   -517.9951787 -0.178170E-08  0.256E-05    0.90     241.5  T
     SCC iter.                  ...        0 min,  2.102 sec
     gradient                   ...        0 min,  0.671 sec
 * total energy  :  -510.3348538 Eh     change        0.4302105E-04 Eh
   gradient norm :     0.0041327 Eh/α   predicted    -0.3479734E-04 (-180.88%)
   displ. norm   :     0.0596450 α      lambda       -0.1326724E-03
   maximum displ.:     0.0218111 α      in ANC's #58, #15, #50, ...

........................................................................
.............................. CYCLE   49 ..............................
........................................................................
   1   -517.9954173 -0.517995E+03  0.576E-04    0.90       0.0  T
   2   -517.9954174 -0.798644E-07  0.360E-04    0.90      17.1  T
   3   -517.9954174 -0.339120E-07  0.177E-04    0.90      35.0  T
   4   -517.9954174  0.559817E-08  0.142E-04    0.90      43.5  T
     SCC iter.                  ...        0 min,  1.558 sec
     gradient                   ...        0 min,  0.648 sec
 * total energy  :  -510.3349270 Eh     change       -0.7313589E-04 Eh
   gradient norm :     0.0015026 Eh/α   predicted    -0.6657259E-04 (  -8.97%)
   displ. norm   :     0.1195021 α      lambda       -0.3242088E-04
   maximum displ.:     0.0484555 α      in ANC's #15, #18, #19, ...

........................................................................
.............................. CYCLE   50 ..............................
........................................................................
   1   -517.9955282 -0.517996E+03  0.478E-04    0.90       0.0  T
   2   -517.9955282 -0.577882E-08  0.362E-04    0.90      17.1  T
   3   -517.9955283 -0.920149E-07  0.151E-04    0.90      41.0  T
   4   -517.9955283 -0.123480E-07  0.833E-05    0.90      74.2  T
     SCC iter.                  ...        0 min,  1.309 sec
     gradient                   ...        0 min,  0.649 sec
 * total energy  :  -510.3349269 Eh     change        0.6558105E-07 Eh
   gradient norm :     0.0030364 Eh/α   predicted    -0.1631561E-04 (*******%)
   displ. norm   :     0.1090874 α      lambda       -0.5644158E-04
   maximum displ.:     0.0425862 α      in ANC's #15, #18, #19, ...

........................................................................
.............................. CYCLE   51 ..............................
........................................................................
   1   -517.9959533 -0.517996E+03  0.382E-04    0.90       0.0  T
   2   -517.9959533 -0.213740E-07  0.251E-04    0.90      24.6  T
   3   -517.9959534 -0.336053E-07  0.115E-04    0.90      53.5  T
   4   -517.9959534 -0.696832E-08  0.700E-05    0.90      88.2  T
     SCC iter.                  ...        0 min,  1.263 sec
     gradient                   ...        0 min,  0.660 sec
 * total energy  :  -510.3349678 Eh     change       -0.4086195E-04 Eh
   gradient norm :     0.0020749 Eh/α   predicted    -0.2855725E-04 ( -30.11%)
   displ. norm   :     0.2487100 α      lambda       -0.9524262E-04
   maximum displ.:     0.1018365 α      in ANC's #15, #18, #19, ...

........................................................................
.............................. CYCLE   52 ..............................
........................................................................
   1   -517.9960194 -0.517996E+03  0.987E-04    0.90       0.0  T
   2   -517.9960197 -0.269376E-06  0.622E-04    0.90       9.9  T
   3   -517.9960199 -0.152102E-06  0.266E-04    0.90      23.2  T
   4   -517.9960199 -0.183611E-07  0.192E-04    0.90      32.1  T
   5   -517.9960199 -0.163719E-07  0.720E-05    0.90      85.8  T
     SCC iter.                  ...        0 min,  1.639 sec
     gradient                   ...        0 min,  0.679 sec
 * total energy  :  -510.3349584 Eh     change        0.9394881E-05 Eh
   gradient norm :     0.0034776 Eh/α   predicted    -0.5057060E-04 (-638.28%)
   displ. norm   :     0.0859811 α      lambda       -0.1166267E-03
   maximum displ.:     0.0333254 α      in ANC's #15, #18, #19, ...

........................................................................
.............................. CYCLE   53 ..............................
........................................................................
   1   -517.9961912 -0.517996E+03  0.241E-04    0.90       0.0  T
   2   -517.9961912 -0.348587E-08  0.165E-04    0.90      37.5  T
   3   -517.9961912 -0.905266E-08  0.966E-05    0.90      63.9  T
     SCC iter.                  ...        0 min,  1.161 sec
     gradient                   ...        0 min,  0.686 sec
 * total energy  :  -510.3350143 Eh     change       -0.5592086E-04 Eh
   gradient norm :     0.0020383 Eh/α   predicted    -0.5874633E-04 (   5.05%)
   displ. norm   :     0.0514520 α      lambda       -0.2999039E-04
   maximum displ.:     0.0209193 α      in ANC's #15, #18, #19, ...

........................................................................
.............................. CYCLE   54 ..............................
........................................................................
   1   -517.9960678 -0.517996E+03  0.447E-04    0.90       0.0  T
   2   -517.9960678 -0.600654E-07  0.240E-04    0.90      25.8  T
   3   -517.9960679 -0.126366E-07  0.107E-04    0.90      57.8  T
   4   -517.9960679  0.395607E-08  0.969E-05    0.90      63.7  T
     SCC iter.                  ...        0 min,  1.545 sec
     gradient                   ...        0 min,  0.684 sec
 * total energy  :  -510.3350261 Eh     change       -0.1178592E-04 Eh
   gradient norm :     0.0013915 Eh/α   predicted    -0.1503823E-04 (  27.59%)
   displ. norm   :     0.1329035 α      lambda       -0.2789824E-04
   maximum displ.:     0.0603005 α      in ANC's #15, #18, #19, ...

........................................................................
.............................. CYCLE   55 ..............................
........................................................................
   1   -517.9955532 -0.517996E+03  0.477E-04    0.90       0.0  T
   2   -517.9955532 -0.400613E-07  0.283E-04    0.90      21.9  T
   3   -517.9955532 -0.237249E-07  0.165E-04    0.90      37.5  T
   4   -517.9955532 -0.114856E-07  0.979E-05    0.90      63.1  T
     SCC iter.                  ...        0 min,  1.299 sec
     gradient                   ...        0 min,  0.680 sec
 * total energy  :  -510.3350375 Eh     change       -0.1145701E-04 Eh
   gradient norm :     0.0016805 Eh/α   predicted    -0.1406006E-04 (  22.72%)
   displ. norm   :     0.1995473 α      lambda       -0.3678437E-04
   maximum displ.:     0.0907926 α      in ANC's #15, #18, #19, ...

........................................................................
.............................. CYCLE   56 ..............................
........................................................................
   1   -517.9947592 -0.517995E+03  0.423E-04    0.90       0.0  T
   2   -517.9947592 -0.275429E-07  0.227E-04    0.90      27.2  T
   3   -517.9947593 -0.119948E-07  0.153E-04    0.90      40.2  T
   4   -517.9947593 -0.124884E-07  0.815E-05    0.90      75.8  T
     SCC iter.                  ...        0 min,  1.235 sec
     gradient                   ...        0 min,  0.655 sec
 * total energy  :  -510.3350499 Eh     change       -0.1238407E-04 Eh
   gradient norm :     0.0019820 Eh/α   predicted    -0.1871932E-04 (  51.16%)
   displ. norm   :     0.1965494 α      lambda       -0.4558816E-04
   maximum displ.:     0.0866504 α      in ANC's #15, #18, #19, ...

........................................................................
.............................. CYCLE   57 ..............................
........................................................................
   1   -517.9940275 -0.517994E+03  0.554E-04    0.90       0.0  T
   2   -517.9940276 -0.674562E-07  0.304E-04    0.90      20.3  T
   3   -517.9940276 -0.173662E-07  0.165E-04    0.90      37.5  T
   4   -517.9940276  0.273644E-09  0.130E-04    0.90      47.5  T
     SCC iter.                  ...        0 min,  1.269 sec
     gradient                   ...        0 min,  0.662 sec
 * total energy  :  -510.3350477 Eh     change        0.2222548E-05 Eh
   gradient norm :     0.0026655 Eh/α   predicted    -0.2318864E-04 (*******%)
   displ. norm   :     0.0418178 α      lambda       -0.5463778E-04
   maximum displ.:     0.0127257 α      in ANC's #70, #61, #15, ...

........................................................................
.............................. CYCLE   58 ..............................
........................................................................
   1   -517.9944611 -0.517994E+03  0.330E-04    0.90       0.0  T
   2   -517.9944611 -0.193387E-07  0.204E-04    0.90      30.2  T
   3   -517.9944611 -0.114054E-07  0.106E-04    0.90      58.3  T
   4   -517.9944611 -0.250873E-08  0.752E-05    0.90      82.1  T
     SCC iter.                  ...        0 min,  1.489 sec
     gradient                   ...        0 min,  0.681 sec
 * total energy  :  -510.3350768 Eh     change       -0.2906647E-04 Eh
   gradient norm :     0.0016505 Eh/α   predicted    -0.2736941E-04 (  -5.84%)
   displ. norm   :     0.0813100 α      lambda       -0.3954221E-04
   maximum displ.:     0.0266145 α      in ANC's #49, #50, #46, ...

[...]
    11   6 C       12   6 C                                       1.3922333
    13   7 N       14   8 O                                       1.2047157
    13   7 N       15   8 O                                       1.2046799
    12   6 C       16   6 C                                       1.3922057
     9   6 C       17   6 C                                       1.3984881
    16   6 C       17   6 C                                       1.3828086
     8   6 C       18   6 C                                       1.3999543
    18   6 C       19   6 C                                       1.4372238
    19   6 C       20   6 C                                       1.3571865
    18   6 C       21   7 N                                       1.3686349
    20   6 C       22   6 C                                       1.4334668
    21   7 N       22   6 C                                       1.3600477
    22   6 C       23   6 C                                       1.4095695
    23   6 C       24   6 C                                       1.4094278
    24   6 C       25   6 C                                       1.4334038
    25   6 C       26   6 C                                       1.3572402
    26   6 C       27   6 C                                       1.4372911
    24   6 C       28   7 N                                       1.3600926
    27   6 C       28   7 N                                       1.3686780
    27   6 C       29   6 C                                       1.4000510
    30   6 C       31   6 C                                       1.3986264
    31   6 C       32   6 C                                       1.3827400
    32   6 C       33   6 C                                       1.3922201
    34   7 N       35   8 O                                       1.2047281
    34   7 N       36   8 O                                       1.2046836
    33   6 C       37   6 C                                       1.3922337
    30   6 C       38   6 C                                       1.3985558
    37   6 C       38   6 C                                       1.3827777
    29   6 C       39   6 C                                       1.4010397
    39   6 C       40   6 C                                       1.4397057
    40   6 C       41   6 C                                       1.3560075
     2   6 C       42   6 C                                       1.3893670
    41   6 C       42   6 C                                       1.4363159
    39   6 C       43   7 N                                       1.3633400
    42   6 C       43   7 N                                       1.3657214
     2   6 C       44   1 H                                       1.0855268
     4   6 C       45   1 H                                       1.0785869
     5   6 C       46   1 H                                       1.0781883
    10   6 C       47   1 H                                       1.0838071
    11   6 C       48   1 H                                       1.0833704
    16   6 C       49   1 H                                       1.0833723
    17   6 C       50   1 H                                       1.0837995
    19   6 C       51   1 H                                       1.0780294
    20   6 C       52   1 H                                       1.0782500
    25   6 C       53   1 H                                       1.0782769
    26   6 C       54   1 H                                       1.0780289
    31   6 C       55   1 H                                       1.0838094
    32   6 C       56   1 H                                       1.0833744
    37   6 C       57   1 H                                       1.0833726
    38   6 C       58   1 H                                       1.0837980
    40   6 C       59   1 H                                       1.0781833
    41   6 C       60   1 H                                       1.0785862
    62   6 C       63   6 C                                       1.3893821
    63   6 C       64   6 C                                       1.4363503
    64   6 C       65   6 C                                       1.3560194
    65   6 C       66   6 C                                       1.4396500
    63   6 C       67   7 N                                       1.3656447
    66   6 C       67   7 N                                       1.3633740
    66   6 C       68   6 C                                       1.4008587
    69   6 C       70   6 C                                       1.3985444
    70   6 C       71   6 C                                       1.3827503
    71   6 C       72   6 C                                       1.3922342
    73   7 N       74   8 O                                       1.2046989
    73   7 N       75   8 O                                       1.2047011
    72   6 C       76   6 C                                       1.3922072
    69   6 C       77   6 C                                       1.3985149
    76   6 C       77   6 C                                       1.3827878
    68   6 C       78   6 C                                       1.3999431
    78   6 C       79   6 C                                       1.4372169
    79   6 C       80   6 C                                       1.3571854
    78   6 C       81   7 N                                       1.3686488
    80   6 C       82   6 C                                       1.4334708
    81   7 N       82   6 C                                       1.3600305
    82   6 C       83   6 C                                       1.4096037
    83   6 C       84   6 C                                       1.4094181
    84   6 C       85   6 C                                       1.4333925
    85   6 C       86   6 C                                       1.3572624
    86   6 C       87   6 C                                       1.4372837
    84   6 C       88   7 N                                       1.3601033
    87   6 C       88   7 N                                       1.3686445
    87   6 C       89   6 C                                       1.4000773
    90   6 C       91   6 C                                       1.3985981
    91   6 C       92   6 C                                       1.3827773
    92   6 C       93   6 C                                       1.3922203
    94   7 N       95   8 O                                       1.2047123
    94   7 N       96   8 O                                       1.2047074
    93   6 C       97   6 C                                       1.3922352
    90   6 C       98   6 C                                       1.3986037
    97   6 C       98   6 C                                       1.3827345
    89   6 C       99   6 C                                       1.4010471
    99   6 C      100   6 C                                       1.4397172 (max)
   100   6 C      101   6 C                                       1.3559994
    62   6 C      102   6 C                                       1.3893687
   101   6 C      102   6 C                                       1.4363087
    99   6 C      103   7 N                                       1.3633706
   102   6 C      103   7 N                                       1.3657150
    62   6 C      104   1 H                                       1.0855262
    64   6 C      105   1 H                                       1.0785854
    65   6 C      106   1 H                                       1.0781900
    70   6 C      107   1 H                                       1.0838060
    71   6 C      108   1 H                                       1.0833700
    76   6 C      109   1 H                                       1.0833719
    77   6 C      110   1 H                                       1.0838011
    79   6 C      111   1 H                                       1.0780267
    80   6 C      112   1 H                                       1.0782475
    85   6 C      113   1 H                                       1.0782820
    86   6 C      114   1 H                                       1.0780378
    91   6 C      115   1 H                                       1.0838027
    92   6 C      116   1 H                                       1.0833751
    97   6 C      117   1 H                                       1.0833705
    98   6 C      118   1 H                                       1.0838042
   100   6 C      119   1 H                                       1.0781761
   101   6 C      120   1 H                                       1.0785860
   121   6 C      122   6 C                                       1.2247523
   123   6 C      124   6 C                                       1.2308270
   125   6 C      126   6 C                                       1.2309035
   127   6 C      128   6 C                                       1.2249582
   129   6 C      130   6 C                                       1.2250650
   131   6 C      132   6 C                                       1.2310578
   133   6 C      134   6 C                                       1.2310772
   135   6 C      136   6 C                                       1.2250633
   137   6 C      138   6 C                                       1.2249755
   139   6 C      140   6 C                                       1.2309532
   141   6 C      142   6 C                                       1.2308389
   143   6 C      144   6 C                                       1.2247617
   146   6 C      147   6 C                                       1.4096779
   147   6 C      148   6 C                                       1.4329007
   148   6 C      149   6 C                                       1.3575293
   149   6 C      150   6 C                                       1.4364626
   147   6 C      151   7 N                                       1.3600324
   150   6 C      151   7 N                                       1.3685404
   150   6 C      152   6 C                                       1.3998677
   153   6 C      154   6 C                                       1.3983020
   154   6 C      155   6 C                                       1.3828927
   155   6 C      156   6 C                                       1.3921204
   157   7 N      158   8 O                                       1.2045342
   157   7 N      159   8 O                                       1.2045424
   156   6 C      160   6 C                                       1.3921267
   153   6 C      161   6 C                                       1.3983777
   160   6 C      161   6 C                                       1.3828313
   152   6 C      162   6 C                                       1.3996324
   162   6 C      163   6 C                                       1.4365125
   163   6 C      164   6 C                                       1.3574808
   162   6 C      165   7 N                                       1.3687569
   164   6 C      166   6 C                                       1.4329768
   165   7 N      166   6 C                                       1.3598622
   166   6 C      167   6 C                                       1.4098428
   167   6 C      168   6 C                                       1.4098448
   168   6 C      169   6 C                                       1.4329361
   169   6 C      170   6 C                                       1.3575103
   170   6 C      171   6 C                                       1.4365021
   168   6 C      172   7 N                                       1.3599171
   171   6 C      172   7 N                                       1.3686920
   171   6 C      173   6 C                                       1.3997766
   174   6 C      175   6 C                                       1.3984552
   175   6 C      176   6 C                                       1.3827948
   176   6 C      177   6 C                                       1.3921339
   178   7 N      179   8 O                                       1.2045508
   178   7 N      180   8 O                                       1.2045543
   177   6 C      181   6 C                                       1.3921335
   174   6 C      182   6 C                                       1.3983899
   181   6 C      182   6 C                                       1.3828713
   173   6 C      183   6 C                                       1.3999434
   183   6 C      184   6 C                                       1.4364856
   184   6 C      185   6 C                                       1.3574967
   146   6 C      186   6 C                                       1.4097775
   185   6 C      186   6 C                                       1.4328618
   183   6 C      187   7 N                                       1.3686162
   186   6 C      187   7 N                                       1.3599830
   148   6 C      188   1 H                                       1.0782364
   149   6 C      189   1 H                                       1.0780072
   154   6 C      190   1 H                                       1.0837875
   155   6 C      191   1 H                                       1.0833700
   160   6 C      192   1 H                                       1.0833699
   161   6 C      193   1 H                                       1.0837964
   163   6 C      194   1 H                                       1.0780008
   164   6 C      195   1 H                                       1.0782379
   169   6 C      196   1 H                                       1.0782352
   170   6 C      197   1 H                                       1.0780055
   175   6 C      198   1 H                                       1.0838002
   176   6 C      199   1 H                                       1.0833661
   181   6 C      200   1 H                                       1.0833704
   182   6 C      201   1 H                                       1.0837846
   184   6 C      202   1 H                                       1.0779779 (min)
   185   6 C      203   1 H                                       1.0782251
   205   6 C      206   6 C                                       1.4098326
   206   6 C      207   6 C                                       1.4329920
   207   6 C      208   6 C                                       1.3574966
   208   6 C      209   6 C                                       1.4364736
   206   6 C      210   7 N                                       1.3598731
   209   6 C      210   7 N                                       1.3687092
   209   6 C      211   6 C                                       1.3996246
   212   6 C      213   6 C                                       1.3983476
   213   6 C      214   6 C                                       1.3828489
   214   6 C      215   6 C                                       1.3921262
   216   7 N      217   8 O                                       1.2045369
   216   7 N      218   8 O                                       1.2045567
   215   6 C      219   6 C                                       1.3921273
   212   6 C      220   6 C                                       1.3983414
   219   6 C      220   6 C                                       1.3828573
   211   6 C      221   6 C                                       1.3998165
   221   6 C      222   6 C                                       1.4364419
   222   6 C      223   6 C                                       1.3574991
   221   6 C      224   7 N                                       1.3685819
   223   6 C      225   6 C                                       1.4328952
   224   7 N      225   6 C                                       1.3599406
   225   6 C      226   6 C                                       1.4097875
   226   6 C      227   6 C                                       1.4096763
   227   6 C      228   6 C                                       1.4328458
   228   6 C      229   6 C                                       1.3575561
   229   6 C      230   6 C                                       1.4364957
   227   6 C      231   7 N                                       1.3600838
   230   6 C      231   7 N                                       1.3684947
   230   6 C      232   6 C                                       1.4000581
   233   6 C      234   6 C                                       1.3985096
   234   6 C      235   6 C                                       1.3827651
   235   6 C      236   6 C                                       1.3921408
   237   7 N      238   8 O                                       1.2045666
   237   7 N      239   8 O                                       1.2045351
   236   6 C      240   6 C                                       1.3921284
   233   6 C      241   6 C                                       1.3983637
   240   6 C      241   6 C                                       1.3829041
   232   6 C      242   6 C                                       1.3997671
   242   6 C      243   6 C                                       1.4365409
   243   6 C      244   6 C                                       1.3574951
   205   6 C      245   6 C                                       1.4098730
   244   6 C      245   6 C                                       1.4329208
   242   6 C      246   7 N                                       1.3688054
   245   6 C      246   7 N                                       1.3598812
   207   6 C      247   1 H                                       1.0782343
   208   6 C      248   1 H                                       1.0780131
   213   6 C      249   1 H                                       1.0837900
   214   6 C      250   1 H                                       1.0833676
   219   6 C      251   1 H                                       1.0833687
   220   6 C      252   1 H                                       1.0837953
   222   6 C      253   1 H                                       1.0779898
   223   6 C      254   1 H                                       1.0782231
   228   6 C      255   1 H                                       1.0782401
   229   6 C      256   1 H                                       1.0780039
   234   6 C      257   1 H                                       1.0838019
   235   6 C      258   1 H                                       1.0833682
   240   6 C      259   1 H                                       1.0833732
   241   6 C      260   1 H                                       1.0837845
   243   6 C      261   1 H                                       1.0779873
   244   6 C      262   1 H                                       1.0782394

 * 4 distinct bonds (by element types)

   Z      Z             #   av. dist./Å        max./Å        min./Å
   1 H    6 C          66     1.0810283     1.0855268     1.0779779
   6 C    6 C         140     1.3860121     1.4397172     1.2247523
   6 C    7 N          32     1.3643703     1.3688054     1.3598622
   7 N    8 O          16     1.2046253     1.2047281     1.2045342


optimized geometry written to: xtbopt.xyz


           -------------------------------------------------
          | TOTAL ENERGY             -510.335178644951 Eh   |
          | GRADIENT NORM               0.000530422873 Eh/α |
          | HOMO-LUMO GAP               0.900174271994 eV   |
           -------------------------------------------------

------------------------------------------------------------------------
 * finished run on 2022/07/30 at 10:29:06.747     
------------------------------------------------------------------------
 total:
 * wall-time:     0 d,  0 h,  5 min,  5.723 sec
 *  cpu-time:     0 d,  0 h,  4 min, 52.216 sec
 * ratio c/w:     0.956 speedup
 SCF:
 * wall-time:     0 d,  0 h,  0 min, 24.506 sec
 *  cpu-time:     0 d,  0 h,  0 min, 24.347 sec
 * ratio c/w:     0.994 speedup
 ANC optimizer:
 * wall-time:     0 d,  0 h,  4 min, 39.514 sec
 *  cpu-time:     0 d,  0 h,  4 min, 27.549 sec
 * ratio c/w:     0.957 speedup

