138
 energy: -219.782779050488 gnorm: 1.028236629883 xtb: 6.5.1 (b24c23e)
Cu          16.94403500000000       -0.00526400000000       -0.00645300000000
C           13.58534700000000        0.19799600000000       -0.24176300000000
C           14.24966600000000        1.29883300000000        0.11971200000000
C           13.60001700000000        2.54232100000000        0.51715800000000
C           14.54273100000000        3.41816100000000        0.80731000000000
C           15.84845300000000        2.77739400000000        0.59999800000000
N           15.66928700000000        1.42883700000000        0.16692600000000
C           17.04362500000000        3.37290100000000        0.78627200000000
C           18.33894200000000        2.68144000000000        0.55845000000000
C           19.63571200000000        3.36808200000000        0.55934700000000
C           20.56889500000000        2.46511400000000        0.34228000000000
N           18.47181200000000        1.40719100000000        0.34650500000000
C           19.87526900000000        1.19011100000000        0.19898800000000
C           20.46685800000000        0.00000000000000        0.00000000000000
C           19.70829000000000       -1.26647500000000       -0.14110900000000
C           20.26547800000000       -2.47099900000000       -0.12479400000000
C           19.21824200000000       -3.43658300000000       -0.38476900000000
C           18.08407400000000       -2.76225100000000       -0.53957200000000
C           16.78212100000000       -3.38680000000000       -0.89820500000000
C           16.75705500000000       -4.82859400000000       -1.23277000000000
C           16.69057800000000       -5.24164600000000       -2.57103000000000
C           16.68593600000000       -6.60755600000000       -2.89053400000000
C           16.58015500000000       -7.04742600000000       -4.32086100000000
C           16.71374200000000       -7.55959300000000       -1.85958000000000
C           16.77080600000000       -7.15450200000000       -0.51773900000000
C           16.83755100000000       -8.18508800000000        0.57079200000000
C           16.80234300000000       -5.78610500000000       -0.20926800000000
C           15.62897700000000       -2.69240100000000       -0.91206300000000
C           14.30830600000000       -3.23284200000000       -1.23058500000000
C           13.45305200000000       -2.24833700000000       -1.04114800000000
C           14.21673500000000       -1.08039800000000       -0.60554200000000
N           15.48695400000000       -1.32739000000000       -0.52637500000000
N           18.30429300000000       -1.35703700000000       -0.39258900000000
C           17.09315700000000        4.78316600000000        1.23097200000000
C           16.77767400000000        5.81865700000000        0.33919200000000
C           16.82066000000000        7.15493300000000        0.76247900000000
C           16.50051500000000        8.26394900000000       -0.19606200000000
C           17.22129600000000        7.45304300000000        2.07350700000000
C           17.56232400000000        6.42448600000000        2.96455300000000
C           17.94465500000000        6.74525700000000        4.37921400000000
C           17.48120800000000        5.08960000000000        2.54253500000000
H           12.50239600000000        0.23497500000000       -0.26004200000000
H           12.53540300000000        2.72887400000000        0.57653400000000
H           14.35679800000000        4.43084600000000        1.13994000000000
H           19.81563700000000        4.42499200000000        0.70581000000000
H           21.63113300000000        2.66262800000000        0.28753800000000
H           21.31111700000000       -2.70246300000000        0.02539000000000
H           19.35380500000000       -4.50626800000000       -0.47121300000000
H           16.64649400000000       -4.50023900000000       -3.36083600000000
H           17.08265300000000       -8.02718900000000       -4.46841800000000
H           15.50983300000000       -7.14388100000000       -4.59838600000000
H           17.06467800000000       -6.30877100000000       -4.99499200000000
H           16.69260600000000       -8.61605800000000       -2.10107500000000
H           16.66898700000000       -7.72986900000000        1.57110800000000
H           16.05878100000000       -8.96002400000000        0.40731500000000
H           17.83672899999999       -8.66912800000000        0.56161600000000
H           16.85911000000000       -5.46239000000000        0.82415300000000
H           14.05445600000000       -4.23619600000000       -1.54568300000000
H           12.38145300000000       -2.30984900000000       -1.17831600000000
H           16.49364800000000        5.58315300000000       -0.67984200000000
H           16.01161200000000        9.10780200000000        0.33597000000000
H           15.80932400000000        7.91206000000000       -0.99100600000000
H           17.43779600000000        8.62761500000000       -0.66599800000000
H           17.26711200000000        8.48585900000000        2.39958500000000
H           17.03519400000000        6.75248700000000        5.01422600000000
H           18.43478400000000        7.74014400000000        4.43776400000000
H           18.65597800000000        5.98805100000000        4.77402600000000
H           17.72327100000000        4.28865600000000        3.23144800000000
Cu          27.45626300000000        0.00766300000000        0.00326000000000
C           30.81495100000000        0.17709300000000       -0.25746900000000
C           30.15063200000000       -0.47652800000000       -1.21417400000000
C           30.80028099999999       -1.20440600000000       -2.29788100000000
C           29.85756600000000       -1.72689200000000       -3.05833500000000
C           28.55184500000000       -1.34940800000000       -2.50060200000000
N           28.73101100000000       -0.55806400000000       -1.32589700000000
C           27.35667300000000       -1.69408600000000       -3.02072100000000
C           26.06135600000000       -1.28279200000000       -2.42000700000000
C           24.76458600000000       -1.47478900000000       -3.07926000000000
C           23.83140200000000       -1.01494900000000       -2.27240500000000
N           25.92848600000000       -0.72452000000000       -1.25511900000000
C           24.52502800000000       -0.52240600000000       -1.08768200000000
C           23.93344000000000        0.00000000000000        0.00000000000000
C           24.69200800000000        0.48807100000000        1.17713900000000
C           24.13481900000000        0.80769600000000        2.33859700000000
C           25.18205500000000        1.32617900000000        3.19364900000000
C           26.31622400000000        1.28715500000000        2.50287900000000
C           27.61817700000000        1.80546400000000        3.00291300000000
C           27.64324300000000        2.52814900000000        4.29459100000000
C           27.70971900000000        3.92849400000000        4.31879500000000
C           27.71436100000000        4.61558900000000        5.54178000000000
C           27.82014300000000        6.11182700000000        5.56611500000000
C           27.68655500000000        3.89039400000000        6.74316900000000
C           27.62949200000000        2.48882500000000        6.72760700000000
C           27.56274700000000        1.73019500000000        8.02046800000000
C           27.59795400000000        1.81163600000000        5.49916200000000
C           28.77132100000000        1.62547900000000        2.33210200000000
C           30.09199100000000        2.08185200000000        2.76251700000000
C           30.94724500000000        1.62585100000000        1.86965700000000
C           30.18356300000000        0.88235200000000        0.86913600000000
N           28.91334400000000        0.87506700000000        1.12840300000000
N           26.09600500000000        0.75482100000000        1.19411900000000
C           27.30714000000000       -2.51377600000000       -4.25145900000000
C           27.62262300000000       -1.94548500000000       -5.49426100000000
C           27.57963800000000       -2.72401300000000       -6.65989400000000
C           27.89978199999999       -2.11206600000000       -7.99190000000000
C           27.17900200000000       -4.06620600000000       -6.58128100000000
C           26.83797300000000       -4.63572200000000       -5.34534200000000
C           26.45564200000000       -6.08376000000000       -5.25964500000000
C           26.91908900000000       -3.85880100000000       -4.18069000000000
H           31.89790200000000        0.18435500000000       -0.29807400000000
H           31.86489500000000       -1.31336600000000       -2.46053200000000
H           30.04349900000000       -2.32826900000000       -3.93840300000000
H           24.58466100000000       -1.90966900000000       -4.05362600000000
H           22.76916400000000       -1.01735100000000       -2.47735000000000
H           23.08918000000000        0.72787900000000        2.60271800000000
H           25.04649300000000        1.70696800000000        4.19699400000000
H           27.75380400000000        4.48070300000000        3.38683800000000
H           27.31764400000000        6.52628100000000        6.46607900000000
H           28.89046400000000        6.40523200000000        5.58150500000000
H           27.33561900000000        6.55369900000000        4.66900100000000
H           27.70769100000000        4.41642500000000        7.69065400000000
H           27.73131000000000        0.64269900000000        7.86169100000000
H           28.34151700000000        2.10292400000000        8.71926900000000
H           26.56356800000000        1.87374700000000        8.48282200000000
H           27.54118700000000        0.72894900000000        5.47590800000000
H           30.34584200000000        2.66379200000000        3.63850300000000
H           32.01884500000000        1.77472100000000        1.89055500000000
H           27.90664900000000       -0.90117300000000       -5.55172700000000
H           28.38868500000000       -2.85796800000000       -8.65430300000000
H           28.59097400000000       -1.25058900000000       -7.87520300000000
H           26.96250100000000       -1.76193500000000       -8.47200500000000
H           27.13318500000000       -4.66689400000000       -7.48250700000000
H           27.36510300000000       -6.69568700000000       -5.08982600000000
H           25.96551400000000       -6.41693600000000       -6.19891200000000
H           25.74432000000000       -6.25219000000000       -4.42246500000000
H           26.67702700000000       -4.29753200000000       -3.21963400000000
C           21.58919000000000        0.00000000000000        0.00000000000000
C           22.81110800000000        0.00000000000000        0.00000000000000
138
 energy: -220.016277828085 gnorm: 0.310934535960 xtb: 6.5.1 (b24c23e)
Cu          16.94442522339483        0.00045131944508       -0.01300050981765
C           13.58572188880434        0.18154991954216       -0.24718413430238
C           14.25506265920404        1.30016082920266        0.12075294890871
C           13.59916830068219        2.53611953737924        0.51496640019447
C           14.55226550739921        3.42087022460126        0.80810690308186
C           15.84618488739901        2.77317154751721        0.59965704860225
N           15.64869857788200        1.44742440010282        0.17477557169632
C           17.05623613822056        3.37358284519575        0.78546766104247
C           18.32599690576141        2.70867774361017        0.56534609944391
C           19.61877740610637        3.38236323180944        0.56422319107788
C           20.55798558520091        2.45504219981855        0.34122337712060
N           18.46215670888134        1.41982556791140        0.34671379733518
C           19.82269984877210        1.21026098426998        0.20457734850189
C           20.34660780559484       -0.01566130880823       -0.00186194576791
C           19.66191866892657       -1.27105017400644       -0.14811061100692
C           20.26164171787957       -2.49353232322325       -0.12921401063501
C           19.23775039921053       -3.44325585678802       -0.38404468204438
C           18.07003625804129       -2.75590627494651       -0.54318029059056
C           16.79544428115867       -3.37935403591894       -0.89476533556664
C           16.76393345711863       -4.82935497774070       -1.23251562671101
C           16.69114250152640       -5.24433917412626       -2.56688727909243
C           16.68291093228305       -6.60606382032491       -2.88607169593060
C           16.58204635973101       -7.04747924797792       -4.32167391791179
C           16.71413799981382       -7.55347590822616       -1.85822287101780
C           16.77201528631267       -7.15080028655996       -0.52008218378686
C           16.83618233143523       -8.18525663736063        0.57178722477108
C           16.80363148374528       -5.78731567735233       -0.21350437291603
C           15.62812514006439       -2.69092556169208       -0.91184052385660
C           14.31586992375251       -3.23224366166504       -1.22935517584671
C           13.44303917687213       -2.23689464021447       -1.03879153265922
C           14.19689928475615       -1.07221072861719       -0.60303886283610
N           15.48349024861376       -1.33851949390170       -0.52947225208549
N           18.29498866099459       -1.37351084528835       -0.39278951694903
C           17.09819541137889        4.78782900749224        1.23088444045134
C           16.77726251589259        5.82057157483480        0.34407015563358
C           16.82336329117731        7.15237306222346        0.76430968716480
C           16.49858169894767        8.26463617544071       -0.19615643001183
C           17.22098252489532        7.44767211708804        2.07187380959320
C           17.55856127621822        6.42381901368508        2.96188675147163
C           17.94693432407038        6.74558712045873        4.37967689993788
C           17.48222557660331        5.09395966003521        2.53958707391305
H           12.50281116803478        0.22932332904225       -0.26254575958178
H           12.53533937790643        2.72081256528959        0.57373203396627
H           14.36723901417008        4.43222112957945        1.14032902801352
H           19.80797337007837        4.43156793580985        0.70792223776879
H           21.62517758091441        2.64808626839880        0.28534293579198
H           21.30996362154089       -2.70452353325995        0.02562795427694
H           19.36012812046134       -4.50926526590725       -0.46949164429390
H           16.64747227261234       -4.50191165923411       -3.35854954894693
H           17.07734694087693       -8.02087972694905       -4.46796183751461
H           15.51868919599469       -7.14383003107513       -4.59877459745885
H           17.05944761939379       -6.31382327900397       -4.99114322997342
H           16.69295970661934       -8.61285830326562       -2.10042092002953
H           16.67118150534622       -7.73338617543489        1.56356447723493
H           16.06567522886850       -8.95635365167323        0.40925019502595
H           17.82825579103517       -8.66724975003605        0.56323845978162
H           16.85872230355161       -5.46332962944303        0.82165487417024
H           14.06448992213446       -4.23566396429647       -1.54486243720924
H           12.37681728058080       -2.30262857872367       -1.17698909242823
H           16.49397489145346        5.58348274356120       -0.67716704048550
H           16.01643018845401        9.10329840112746        0.33138270524009
H           15.81547506813805        7.91504570858093       -0.98659031239836
H           17.42944547814662        8.62674811538910       -0.66384466437185
H           17.26716065356234        8.48303959693667        2.39874600601045
H           17.04344666355540        6.75298732593459        5.01174208198347
H           18.43016099563226        7.73379864977128        4.43864271697980
H           18.64975564719928        5.99317012961269        4.77271462771543
H           17.72325928113105        4.29058824455720        3.22954612492889
Cu          27.45587269105652        0.01236088299973       -0.00405210194449
C           30.81457611561642        0.18687785874822       -0.24318173479994
C           30.14523528567507       -0.47789733319789       -1.21515969052359
C           30.80112962833684       -1.20057489201587       -2.29253446892659
C           29.84803166319802       -1.72841155880676       -3.06071549163537
C           28.55411291025556       -1.34790511233169       -2.49664135672956
N           28.75159926828161       -0.57077735933668       -1.34156464048632
C           27.34406170436086       -1.69350343968048       -3.02159978548758
C           26.07430099974638       -1.29699734574427       -2.44424835139353
C           24.78152049894562       -1.48344790807274       -3.09161937823942
C           23.84231164144415       -1.01113042199453       -2.26302527444957
N           25.93814122446951       -0.72823739764687       -1.26719594874351
C           24.57759744443148       -0.53338355444814       -1.10547984561984
C           24.05369013968636        0.00614786071643        0.01452402021902
C           24.73837938468820        0.49606952115619        1.17958448995449
C           24.13865554511807        0.81821380745981        2.35900923824616
C           25.16254674791330        1.32734088990677        3.20025998703253
C           26.33026159778904        1.28885438425346        2.49578058836678
C           27.60485353333027        1.80008776106883        2.99671878102160
C           27.63636438796186        2.52811641241383        4.29539249623217
C           27.70915464291649        3.92526461975514        4.32253478804536
C           27.71738612966690        4.61088746907633        5.54158912612037
C           27.81825126196865        6.11262250118773        5.56593972842819
C           27.68615907443917        3.88738770116133        6.73767118314577
C           27.62828252786802        2.49004546895881        6.72339961778731
C           27.56411546922516        1.72928596696984        8.02090677928978
C           27.59666565053862        1.81604166358022        5.49914559600712
C           28.77217268349728        1.62485476238436        2.33074668777338
C           30.08442725859753        2.08050401970740        2.76228483592709
C           30.95725818119313        1.62040274588315        1.85932265334971
C           30.20339866044548        0.87766851734824        0.86196899583424
N           28.91680762033339        0.88113969656428        1.13823033162184
N           26.10530935057169        0.75959922747257        1.20988597618563
C           27.30210171185310       -2.51498996692328       -4.25596179951723
C           27.62303453474731       -1.95070355542363       -5.49474207221836
C           27.57693456773404       -2.72505857847056       -6.65692590769245
C           27.90171549152582       -2.11216669116787       -7.99258641338626
C           27.17931530354475       -4.06314235415241       -6.57657669043068
C           26.84173582065012       -4.63297536757732       -5.34544337889003
C           26.45336280620245       -6.08429667593348       -5.25983322335159
C           26.91807152845579       -3.85718306501725       -4.18569796757074
H           31.89748684318405        0.18833311601630       -0.29334262978340
H           31.86495854109283       -1.30843068711063       -2.45356915136245
H           30.03305801103494       -2.32902548173420       -3.93961551446837
H           24.59232459774372       -1.91352825364875       -4.05935417734116
H           22.77511954012396       -1.01119483251968       -2.46399406087309
H           23.09033352179149        0.72822402830081        2.60476327395073
H           25.04016988942678        1.70614887959366        4.20035162219434
H           27.75282568424642        4.47897248497648        3.38908112331872
H           27.32295006860364        6.52408669191142        6.46014611897636
H           28.88160797547872        6.40559113657121        5.58134786255132
H           27.34084949208297        6.55140873918092        4.67492506256733
H           27.70733730939007        4.41490616218152        7.68776298112891
H           27.72911554383312        0.65092351929094        7.86296945248595
H           28.33462270467588        2.10004356930228        8.71628236814784
H           26.57204144365593        1.87166585360448        8.48146956125591
H           27.54157471977607        0.73161006778142        5.47611507423218
H           30.33580802388149        2.66285580776846        3.63822042533607
H           32.02348047995839        1.77143660617474        1.88398932255367
H           27.90632217663668       -0.90383369060880       -5.55129911967761
H           28.38386672085723       -2.85230828449485       -8.65125425759996
H           28.58482285748985       -1.25566128413412       -7.87684149825284
H           26.97085156695291       -1.76376192015442       -8.47057293314088
H           27.13313640123915       -4.66530342548217       -7.48003264503834
H           27.35685041342293       -6.69344047318195       -5.09099793420714
H           25.97013680454654       -6.41601370440405       -6.19257283821761
H           25.75054230134195       -6.25235539389615       -4.42774697612667
H           26.67703869831415       -4.29624309664734       -3.22201947631852
C           21.62008678354024       -0.00994424205760        0.00227509853181
C           22.78021113528174        0.00058290437489        0.01018448382968
138
 energy: -220.089265736855 gnorm: 0.154845028742 xtb: 6.5.1 (b24c23e)
Cu          16.94204860551270        0.01206872334266       -0.03284211123091
C           13.58638660004279        0.16466158532988       -0.25254407720459
C           14.25649620725828        1.30199624819133        0.12346405342531
C           13.59872729155342        2.52985154110769        0.51296688793123
C           14.56039384375398        3.42290555210766        0.80904877563141
C           15.83944999229323        2.77224386216410        0.60214807819056
N           15.62262932646048        1.47061720438365        0.18618728200029
C           17.06327423794937        3.37997593472804        0.78547291063569
C           18.30487759714973        2.74594089278608        0.57512032136131
C           19.59627718589999        3.39885751013646        0.57285032545858
C           20.53063003763139        2.44762193967683        0.34245692398029
N           18.44470140154396        1.44115510715547        0.34377996301621
C           19.77672493544372        1.22079709901903        0.20555797325177
C           20.26702008827820       -0.03752658835258        0.00196521117448
C           19.61966839944247       -1.27418604738931       -0.15388333101623
C           20.25161552974131       -2.51910215117051       -0.14048582427687
C           19.25921573712064       -3.45167973383466       -0.38884928089995
C           18.05669749994306       -2.75852411078366       -0.54878848043186
C           16.81232619997603       -3.37009296173493       -0.89125086135905
C           16.77727357220399       -4.82682502879799       -1.23085719829294
C           16.69409060541138       -5.24429364182395       -2.56096797772740
C           16.67816510319988       -6.60227123252417       -2.88047502489718
C           16.58347811402085       -7.04574657657993       -4.31905200856896
C           16.71457637381892       -7.54590229693956       -1.85632689171015
C           16.77449920261359       -7.14545387732568       -0.52202145826565
C           16.83466927904452       -8.18317181091327        0.57053566494458
C           16.80889983006455       -5.78635258793993       -0.21701903290242
C           15.62521610661733       -2.68479359300276       -0.91023961498749
C           14.32231579109910       -3.22480973553452       -1.22600982231521
C           13.43197814160235       -2.22615120978452       -1.03524702476555
C           14.17312311197623       -1.06561275279902       -0.59958270800090
N           15.47674703031752       -1.35035129164564       -0.53278545978951
N           18.27988366205620       -1.40124403367454       -0.38635090379960
C           17.10170287614679        4.79559838629483        1.23059522428382
C           16.77590134953943        5.82421545320880        0.34828853735279
C           16.82639010124399        7.15127012388818        0.76577485274643
C           16.49716442264483        8.26438191529744       -0.19497480851883
C           17.22024841730442        7.44315890849713        2.07051179080126
C           17.55380999796676        6.42387251463695        2.95994018322619
C           17.94804755274544        6.74573465199456        4.37831018025377
C           17.48472251053189        5.09921720973921        2.53611427300330
H           12.50358881541879        0.21996473986341       -0.26895034987465
H           12.53470078385786        2.70522853929871        0.56773707979302
H           14.38703328572979        4.43500334649078        1.14083499494542
H           19.79265858530697        4.44602430860626        0.71339561756524
H           21.60112983167333        2.62108281742166        0.28200050844992
H           21.30221399259341       -2.70857092384641        0.02479629640460
H           19.37180074216048       -4.51803135875491       -0.46671594788045
H           16.65072457398360       -4.50326365537507       -3.35387114004710
H           17.07064884208839       -8.01357095543006       -4.46511041709698
H           15.52938073824662       -7.14382445207793       -4.60043257853587
H           17.05298286823562       -6.31793315772193       -4.98574519921753
H           16.69405670168207       -8.60590046109415       -2.09895091943155
H           16.67399012204691       -7.73545236970300        1.55440986984315
H           16.07383232164044       -8.95234693510135        0.41039748449457
H           17.81781249337289       -8.66560002274699        0.56531372951052
H           16.85908735023201       -5.46407978298864        0.81854715391213
H           14.08450640905411       -4.23063507549026       -1.54293366432178
H           12.36707787187488       -2.29072580690142       -1.17510674602193
H           16.49319571268584        5.58456974647454       -0.67260734098654
H           16.02246742135079        9.09910172192544        0.32699302115412
H           15.82296661092353        7.91717589767252       -0.98191961240977
H           17.41902581002720        8.62687399489090       -0.66214044104324
H           17.26724591988005        8.47862280351874        2.39743990156978
H           17.05367130075147        6.75391011389616        5.01037489111823
H           18.42395494950247        7.72762774331604        4.43895363942718
H           18.64192550817405        5.99783154984087        4.77064674400762
H           17.72441818334469        4.29422435271189        3.22513808195708
Cu          27.45824928929220        0.02818412104265       -0.02073334068723
C           30.81391139385675        0.19672694010100       -0.22845258059579
C           30.14380182604315       -0.48101210852608       -1.21616807979914
C           30.80157061325342       -1.19690987041214       -2.28707055921137
C           29.83990362657629       -1.72988280755229       -3.06240854796112
C           28.56084773271618       -1.35003943976519       -2.49505722628825
N           28.77766863404156       -0.58819424545624       -1.36066440541541
C           27.33702347765675       -1.69528836270546       -3.02773873856097
C           26.09542001561975       -1.31675794866742       -2.47731792851454
C           24.80402049043759       -1.49632566943915       -3.10506040205598
C           23.86966732242731       -1.01024960098852       -2.25555484364799
N           25.95559603076994       -0.73135686323271       -1.28849928550495
C           24.62357239493995       -0.53725841274364       -1.11532668751611
C           24.13327769393472        0.00855836201882        0.03659038264860
C           24.78062944659384        0.50248720114313        1.18098967890025
C           24.14868184423495        0.83615793229952        2.38043088318705
C           25.14108150813259        1.33430061544498        3.20701388010936
C           26.34360009558184        1.29496958404183        2.49673386971707
C           27.58797147962053        1.79413449166965        2.98880197196050
C           27.62302406975219        2.52581916547811        4.29342402759069
C           27.70620676163036        3.91956645182828        4.32413868889801
C           27.72213207193025        4.60445606388170        5.53950447868296
C           27.81681917146017        6.10962177809108        5.56500529032070
C           27.68572079882975        3.88345844703864        6.73092449469356
C           27.62579835798817        2.49042012467220        6.71772489658237
C           27.56562831982215        1.72990766105716        8.01855570281450
C           27.59139746478234        1.81914910819663        5.49724224530504
C           28.77508171334922        1.62161056257558        2.32530271964088
C           30.07798176112762        2.07522129214094        2.75607625659602
C           30.96831962737778        1.61400812819429        1.84999038924212
C           30.22717500690703        0.87251213687892        0.85659390077769
N           28.92355104318053        0.88761561351883        1.14867230608334
N           26.12041402103334        0.76113517018452        1.23831556554943
C           27.29859446532761       -2.51687495882688       -4.26350437477901
C           27.62439584518612       -1.95576972699007       -5.49706778990172
C           27.57390753166166       -2.72615863410726       -6.65545897597032
C           27.90313292263596       -2.11323092410035       -7.99201340476405