      -----------------------------------------------------------      
     |                   =====================                   |     
     |                           x T B                           |     
     |                   =====================                   |     
     |                         S. Grimme                         |     
     |          Mulliken Center for Theoretical Chemistry        |     
     |                    University of Bonn                     |     
      -----------------------------------------------------------      

   * xtb version 6.5.1 (b24c23e) compiled by 'conda@728c89f4b128' on 2022-07-12

   xtb is free software: you can redistribute it and/or modify it under
   the terms of the GNU Lesser General Public License as published by
   the Free Software Foundation, either version 3 of the License, or
   (at your option) any later version.
   
   xtb is distributed in the hope that it will be useful,
   but WITHOUT ANY WARRANTY; without even the implied warranty of
   MERCHANTABILITY or FITNESS FOR A PARTICULAR PURPOSE.  See the
   GNU Lesser General Public License for more details.
   
   Cite this work as:
   * C. Bannwarth, E. Caldeweyher, S. Ehlert, A. Hansen, P. Pracht,
     J. Seibert, S. Spicher, S. Grimme, WIREs Comput. Mol. Sci., 2020, 11,
     e01493. DOI: 10.1002/wcms.1493
   
   for GFN2-xTB:
   * C. Bannwarth, S. Ehlert and S. Grimme., J. Chem. Theory Comput., 2019,
     15, 1652-1671. DOI: 10.1021/acs.jctc.8b01176
   for GFN1-xTB:
   * S. Grimme, C. Bannwarth, P. Shushkov, J. Chem. Theory Comput., 2017,
     13, 1989-2009. DOI: 10.1021/acs.jctc.7b00118
   for GFN0-xTB:
   * P. Pracht, E. Caldeweyher, S. Ehlert, S. Grimme, ChemRxiv, 2019, preprint.
     DOI: 10.26434/chemrxiv.8326202.v1
   for GFN-FF:
   * S. Spicher and S. Grimme, Angew. Chem. Int. Ed., 2020, 59, 15665-15673.
     DOI: 10.1002/anie.202004239
   
   for ALPB and GBSA implicit solvation:
   * S. Ehlert, M. Stahn, S. Spicher, S. Grimme, J. Chem. Theory Comput.,
     2021, 17, 4250-4261. DOI: 10.1021/acs.jctc.1c00471
   
   for DFT-D4:
   * E. Caldeweyher, C. Bannwarth and S. Grimme, J. Chem. Phys., 2017,
     147, 034112. DOI: 10.1063/1.4993215
   * E. Caldeweyher, S. Ehlert, A. Hansen, H. Neugebauer, S. Spicher,
     C. Bannwarth and S. Grimme, J. Chem. Phys., 2019, 150, 154122.
     DOI: 10.1063/1.5090222
   * E. Caldeweyher, J.-M. Mewes, S. Ehlert and S. Grimme, Phys. Chem. Chem. Phys.
     2020, 22, 8499-8512. DOI: 10.1039/D0CP00502A
   
   for sTDA-xTB:
   * S. Grimme and C. Bannwarth, J. Chem. Phys., 2016, 145, 054103.
     DOI: 10.1063/1.4959605
   
   in the mass-spec context:
   * V. Asgeirsson, C. Bauer and S. Grimme, Chem. Sci., 2017, 8, 4879.
     DOI: 10.1039/c7sc00601b
   * J. Koopman and S. Grimme, ACS Omega 2019, 4, 12, 15120-15133.
     DOI: 10.1021/acsomega.9b02011
   
   for metadynamics refer to:
   * S. Grimme, J. Chem. Theory Comput., 2019, 155, 2847-2862
     DOI: 10.1021/acs.jctc.9b00143
   
   for SPH calculations refer to:
   * S. Spicher and S. Grimme, J. Chem. Theory Comput., 2021, 17, 1701-1714
     DOI: 10.1021/acs.jctc.0c01306
   
   with help from (in alphabetical order)
   P. Atkinson, C. Bannwarth, F. Bohle, G. Brandenburg, E. Caldeweyher
   M. Checinski, S. Dohm, S. Ehlert, S. Ehrlich, I. Gerasimov, C. Hölzer
   A. Katbashev, J. Koopman, C. Lavigne, S. Lehtola, F. März, M. Müller,
   F. Musil, H. Neugebauer, J. Pisarek, C. Plett, P. Pracht, F. Pultar,
   J. Seibert, P. Shushkov, S. Spicher, M. Stahn, M. Steiner, T. Strunk,
   J. Stückrath, T. Rose, and J. Unsleber
   
 * started run on 2022/07/30 at 04:18:08.366     

           -------------------------------------------------
          |                Calculation Setup                |
           -------------------------------------------------

          program call               : xtb xtbopt.xyz --gfn 1 --vipea
          hostname                   : cx3-15-15.cx3.hpc.ic.ac.uk
          coordinate file            : xtbopt.xyz
          omp threads                :                     1

   ID    Z sym.   atoms
    1   27 Co     1, 63, 143, 204
    2    6 C      2-6, 8-11, 13, 15, 17-20, 22-27, 29-32, 34, 36, 38-42,
                  64-68, 70-73, 75, 77, 79-82, 84-89, 91-94, 96, 98, 100-104,
                  125-142, 144-148, 150-153, 155, 157, 159-162, 164-169,
                  171-174, 176, 178, 180-184, 205-209, 211-214, 216, 218,
                  220-223, 225-230, 232-235, 237, 239, 241-245
    3    7 N      7, 21, 28, 43, 69, 83, 90, 105, 149, 163, 170, 185, 210,
                  224, 231, 246
    4    8 O      12, 14, 16, 33, 35, 37, 74, 76, 78, 95, 97, 99, 154, 156,
                  158, 175, 177, 179, 215, 217, 219, 236, 238, 240
    5    1 H      44-62, 106-124, 186-203, 247-264

           -------------------------------------------------
          |                 I P E A - x T B                 |
           -------------------------------------------------

        Reference                      10.1039/c7sc00601b
      * Hamiltonian:
        H0-scaling (s, p, d)           2.150000    2.300000    2.000000
        zeta-weighting                 0.000000
      * Dispersion:
        s8                             2.400000
        a1                             0.630000
        a2                             5.000000
        s9                             0.000000
      * Repulsion:
        kExp                           1.500000
        rExp                           1.000000
      * Coulomb:
        alpha                          1.000000
        third order                    atomic
        anisotropic                    false
      * Halogen bond correction:
        rad-scale                      1.300000
        damping                        0.440000


          ...................................................
          :                      SETUP                      :
          :.................................................:
          :  # basis functions                1118          :
          :  # atomic orbitals                1114          :
          :  # shells                          718          :
          :  # electrons                       918          :
          :  # halogen bonds                     0          :
          :  max. iterations                   250          :
          :  Hamiltonian                  GFN1-xTB          :
          :  restarted?                      false          :
          :  GBSA solvation                  false          :
          :  PC potential                    false          :
          :  electronic temp.          300.0000000     K    :
          :  accuracy                    1.0000000          :
          :  -> integral cutoff          0.2500000E+02      :
          :  -> integral neglect         0.1000000E-07      :
          :  -> SCF convergence          0.1000000E-05 Eh   :
          :  -> wf. convergence          0.2000000E-04 e    :
          :  Broyden damping             0.4000000          :
          ...................................................

 iter      E             dE          RMSdq      gap      omega  full diag
   1   -586.2656581 -0.586266E+03  0.106E+01    0.04       0.0  T
   2   -545.2170983  0.410486E+02  0.105E+01    0.05       1.0  T
   3   -573.6962466 -0.284791E+02  0.668E+00    0.31       1.0  T
   4   -313.5429587  0.260153E+03  0.869E+00    0.00       1.0  T
   5   -369.5054784 -0.559625E+02  0.786E+00    0.06       1.0  T
   6   -576.6665448 -0.207161E+03  0.442E+00    0.05       1.0  T
   7   -585.5640922 -0.889755E+01  0.296E+00    0.17       1.0  T
   8   -588.7763786 -0.321229E+01  0.267E+00    0.43       1.0  T
   9   -589.2290305 -0.452652E+00  0.253E+00    0.05       1.0  T
  10   -589.0531729  0.175858E+00  0.252E+00    0.16       1.0  T
  11   -589.0754609 -0.222880E-01  0.231E+00    0.11       1.0  T
  12   -588.8277140  0.247747E+00  0.220E+00    0.06       1.0  T
  13   -589.2240768 -0.396363E+00  0.206E+00    0.22       1.0  T
  14   -585.6709544  0.355312E+01  0.312E+00    0.00       1.0  T
  15   -589.3066381 -0.363568E+01  0.189E+00    0.00       1.0  T
  16   -588.8367441  0.469894E+00  0.202E+00    0.00       1.0  T
  17   -588.9075748 -0.708307E-01  0.217E+00    0.06       1.0  T
  18   -588.3226808  0.584894E+00  0.242E+00    0.07       1.0  T
  19   -585.1426883  0.317999E+01  0.307E+00    0.00       1.0  T
  20   -584.9150861  0.227602E+00  0.313E+00    0.00       1.0  T
  21   -587.5777987 -0.266271E+01  0.225E+00    0.06       1.0  T
  22   -587.9719778 -0.394179E+00  0.209E+00    0.03       1.0  T
  23   -590.6705619 -0.269858E+01  0.106E+00    0.09       1.0  T
  24   -590.6412422  0.293197E-01  0.131E+00    0.09       1.0  T
  25   -590.5973407  0.439015E-01  0.136E+00    0.10       1.0  T
  26   -590.6081408 -0.108002E-01  0.135E+00    0.09       1.0  T
  27   -590.6940411 -0.859003E-01  0.109E+00    0.15       1.0  T
  28   -590.6451277  0.489135E-01  0.127E+00    0.10       1.0  T
  29   -590.8442971 -0.199169E+00  0.999E-01    0.05       1.0  T
  30   -590.8702869 -0.259898E-01  0.946E-01    0.06       1.0  T
  31   -590.9606602 -0.903733E-01  0.807E-01    0.03       1.0  T
  32   -590.9181955  0.424647E-01  0.820E-01    0.03       1.0  T
  33   -590.9667447 -0.485492E-01  0.718E-01    0.02       1.0  T
  34   -590.9376847  0.290600E-01  0.708E-01    0.04       1.0  T
  35   -591.0100545 -0.723698E-01  0.582E-01    0.01       1.0  T
  36   -591.0709176 -0.608631E-01  0.581E-01    0.01       1.0  T
  37   -591.0612786  0.963907E-02  0.613E-01    0.00       1.0  T
  38   -591.1679686 -0.106690E+00  0.302E-01    0.00       1.0  T
  39   -591.1710897 -0.312107E-02  0.205E-01    0.00       1.0  T
  40   -591.1756685 -0.457885E-02  0.290E-01    0.01       1.0  T
  41   -591.1817038 -0.603529E-02  0.146E-01    0.00       1.0  T
  42   -591.1796477  0.205609E-02  0.256E-01    0.00       1.0  T
  43   -591.1957552 -0.161075E-01  0.896E-02    0.00       1.0  T
  44   -591.1938790  0.187620E-02  0.136E-01    0.00       1.0  T
  45   -591.1961699 -0.229089E-02  0.109E-01    0.01       1.0  T
  46   -591.1975052 -0.133531E-02  0.846E-02    0.00       1.0  T
  47   -591.1970238  0.481403E-03  0.917E-02    0.00       1.0  T
  48   -591.1988191 -0.179522E-02  0.569E-02    0.00       1.0  T
  49   -591.1962397  0.257939E-02  0.919E-02    0.00       1.0  T
  50   -591.1988697 -0.263001E-02  0.463E-02    0.00       1.0  T
  51   -591.1987552  0.114509E-03  0.486E-02    0.00       1.0  T
  52   -591.1987418  0.133563E-04  0.482E-02    0.00       1.0  T
  53   -591.1997016 -0.959831E-03  0.126E-02    0.00       1.0  T
  54   -591.1996946  0.704332E-05  0.139E-02    0.00       1.0  T
  55   -591.1997738 -0.792023E-04  0.495E-03    0.00       1.2  T
  56   -591.1997765 -0.271909E-05  0.454E-03    0.00       1.4  T
  57   -591.1997769 -0.379534E-06  0.468E-03    0.00       1.3  T
  58   -591.1997748  0.205959E-05  0.493E-03    0.00       1.2  T
  59   -591.1997640  0.108428E-04  0.694E-03    0.00       1.0  T
  60   -591.1997776 -0.135537E-04  0.378E-03    0.00       1.6  T
  61   -591.1997792 -0.161089E-05  0.315E-03    0.00       2.0  T
  62   -591.1997818 -0.259614E-05  0.198E-03    0.00       3.1  T
  63   -591.1997832 -0.148435E-05  0.877E-04    0.00       7.0  T
  64   -591.1997836 -0.309120E-06  0.313E-04    0.00      19.7  T
  65   -591.1997835  0.190732E-07  0.389E-04    0.00      15.8  T
  66   -591.1997836 -0.592222E-07  0.240E-04    0.00      25.6  T
  67   -591.1997836 -0.807006E-08  0.241E-04    0.00      25.6  T
  68   -591.1997836 -0.578689E-08  0.240E-04    0.00      25.7  T
  69   -591.1997836  0.245927E-08  0.261E-04    0.00      23.6  T
  70   -591.1997836 -0.183221E-07  0.152E-04    0.00      40.4  T
  71   -591.1997836 -0.469151E-08  0.118E-04    0.00      52.2  T

   *** convergence criteria satisfied after 71 iterations ***

         #    Occupation            Energy/Eh            Energy/eV
      -------------------------------------------------------------
         1        2.0000           -1.0419709             -28.3535
       ...           ...                  ...                  ...
       453        1.9998           -0.3615939              -9.8395
       454        1.9998           -0.3615529              -9.8384
       455        1.9998           -0.3615303              -9.8377
       456        1.9998           -0.3613839              -9.8338
       457        1.9998           -0.3613243              -9.8321
       458        1.0381           -0.3527691              -9.5993
       459        1.0094           -0.3527146              -9.5979 (HOMO)
       460        0.9846           -0.3526674              -9.5966 (LUMO)
       461        0.9696           -0.3526388              -9.5958
       462                         -0.3186522              -8.6710
       463                         -0.3120112              -8.4903
       464                         -0.3023796              -8.2282
       ...                                ...                  ...
      1114                        510.2208500           13883.8160
      -------------------------------------------------------------
                  HL-Gap            0.0000473 Eh            0.0013 eV
             Fermi-level           -0.3526967 Eh           -9.5974 eV

 SCC (total)                   0 d,  0 h,  0 min, 38.604 sec
 SCC setup                      ...        0 min,  0.009 sec (  0.024%)
 Dispersion                     ...        0 min,  0.013 sec (  0.033%)
 classical contributions        ...        0 min,  0.004 sec (  0.010%)
 integral evaluation            ...        0 min,  0.821 sec (  2.128%)
 iterations                     ...        0 min, 35.960 sec ( 93.150%)
 molecular gradient             ...        0 min,  1.696 sec (  4.393%)
 printout                       ...        0 min,  0.101 sec (  0.263%)

         :::::::::::::::::::::::::::::::::::::::::::::::::::::
         ::                     SUMMARY                     ::
         :::::::::::::::::::::::::::::::::::::::::::::::::::::
         :: total energy            -581.059915730015 Eh    ::
         :: gradient norm              0.114253826180 Eh/a0 ::
         :: HOMO-LUMO gap              0.001285784283 eV    ::
         ::.................................................::
         :: SCC energy              -591.199783629940 Eh    ::
         :: -> electrostatic           0.577204180900 Eh    ::
         :: repulsion energy          10.374438360190 Eh    ::
         :: dispersion energy         -0.234570460265 Eh    ::
         :: halogen bond corr.         0.000000000000 Eh    ::
         :: add. restraining           0.000000000000 Eh    ::
         :: total charge               0.000000000002 e     ::
         :::::::::::::::::::::::::::::::::::::::::::::::::::::

           ------------------------------------------------- 
          |        vertical delta SCC IP calculation        |
           ------------------------------------------------- 
   1   -590.8015486 -0.590802E+03  0.272E-01    0.00       0.0  T
   2   -590.5781774  0.223371E+00  0.864E-01    0.00       1.0  T
   3   -589.8546790  0.723498E+00  0.149E+00    0.21       1.0  T
   4   -590.5880508 -0.733372E+00  0.721E-01    0.06       1.0  T
   5   -590.5942400 -0.618921E-02  0.723E-01    0.02       1.0  T
   6   -590.6310311 -0.367911E-01  0.634E-01    0.04       1.0  T
   7   -590.7533692 -0.122338E+00  0.391E-01    0.00       1.0  T
   8   -590.8050407 -0.516715E-01  0.184E-01    0.01       1.0  T
   9   -590.8148403 -0.979961E-02  0.104E-01    0.01       1.0  T
  10   -590.8172772 -0.243691E-02  0.717E-02    0.00       1.0  T
  11   -590.8147802  0.249700E-02  0.105E-01    0.01       1.0  T
  12   -590.8190340 -0.425382E-02  0.364E-02    0.00       1.0  T
  13   -590.8193405 -0.306469E-03  0.258E-02    0.00       1.0  T
  14   -590.8196069 -0.266386E-03  0.968E-03    0.00       1.0  T
  15   -590.8196465 -0.396735E-04  0.244E-03    0.00       2.5  T
  16   -590.8196485 -0.200572E-05  0.137E-03    0.00       4.5  T
  17   -590.8196475  0.997469E-06  0.197E-03    0.00       3.1  T
  18   -590.8196493 -0.171476E-05  0.458E-04    0.00      13.4  T
  19   -590.8196492  0.348696E-07  0.522E-04    0.00      11.8  T
  20   -590.8196493 -0.119548E-06  0.127E-04    0.00      48.3  T
  21   -590.8196493 -0.185173E-08  0.108E-04    0.00      57.2  T
     SCC iter.                  ...        0 min, 10.669 sec
     gradient                   ...        0 min,  1.704 sec
------------------------------------------------------------------------
empirical IP shift (eV):    4.8455
delta SCC IP (eV):    5.4985
------------------------------------------------------------------------
           ------------------------------------------------- 
          |        vertical delta SCC EA calculation        |
           ------------------------------------------------- 
   1   -591.4640242 -0.591464E+03  0.511E-01    0.00       0.0  T
   2   -591.2795050  0.184519E+00  0.768E-01    0.01       1.0  T
   3   -590.4978515  0.781653E+00  0.155E+00    0.10       1.0  T
   4   -591.3986142 -0.900763E+00  0.580E-01    0.03       1.0  T
   5   -591.3840961  0.145181E-01  0.589E-01    0.01       1.0  T
   6   -591.4021255 -0.180294E-01  0.536E-01    0.00       1.0  T
   7   -591.3372608  0.648647E-01  0.666E-01    0.01       1.0  T
   8   -591.3594363 -0.221755E-01  0.624E-01    0.00       1.0  T
   9   -591.4939687 -0.134532E+00  0.268E-01    0.01       1.0  T
  10   -591.4683642  0.256045E-01  0.363E-01    0.00       1.0  T
  11   -591.4624698  0.589441E-02  0.380E-01    0.00       1.0  T
  12   -591.5159418 -0.534721E-01  0.146E-01    0.00       1.0  T
  13   -591.5219883 -0.604643E-02  0.857E-02    0.00       1.0  T
  14   -591.5250743 -0.308601E-02  0.163E-02    0.00       1.0  T
  15   -591.5249233  0.150989E-03  0.248E-02    0.00       1.0  T
  16   -591.5251569 -0.233566E-03  0.873E-03    0.00       1.0  T
  17   -591.5251042  0.526749E-04  0.141E-02    0.00       1.0  T
  18   -591.5251875 -0.833514E-04  0.286E-03    0.00       2.2  T
  19   -591.5251893 -0.179248E-05  0.199E-03    0.00       3.1  T
  20   -591.5251902 -0.837348E-06  0.142E-03    0.00       4.3  T
  21   -591.5251907 -0.481277E-06  0.944E-04    0.00       6.5  T
  22   -591.5251910 -0.379020E-06  0.109E-04    0.00      56.4  T
  23   -591.5251910  0.128121E-07  0.203E-04    0.00      30.3  T
  24   -591.5251910 -0.174836E-07  0.418E-05    0.00     147.4  T
     SCC iter.                  ...        0 min, 12.131 sec
     gradient                   ...        0 min,  1.697 sec
------------------------------------------------------------------------
empirical EA shift (eV):    4.8455
delta SCC EA (eV):    4.0093
------------------------------------------------------------------------
           -------------------------------------------------
          |                Property Printout                |
           -------------------------------------------------

    * Orbital Energies and Occupations

         #    Occupation            Energy/Eh            Energy/eV
      -------------------------------------------------------------
         1        2.0000           -1.0104641             -27.4961
       ...           ...                  ...                  ...
       448        2.0000           -0.3094471              -8.4205
       449        2.0000           -0.3094073              -8.4194
       450        1.9999           -0.3091928              -8.4136
       451        1.9999           -0.3091676              -8.4129
       452        1.9999           -0.3091138              -8.4114
       453        1.9999           -0.3089246              -8.4063
       454        1.9999           -0.3088240              -8.4035
       455        1.9999           -0.3088048              -8.4030
       456        1.9999           -0.3087914              -8.4026
       457        1.9999           -0.3087639              -8.4019
       458        1.2733           -0.2995700              -8.1517
       459        1.2615           -0.2995441              -8.1510
       460        1.2430           -0.2995039              -8.1499 (HOMO)
       461        1.2228           -0.2994602              -8.1487 (LUMO)
       462                         -0.2752981              -7.4912
       463                         -0.2691576              -7.3242
       464                         -0.2598148              -7.0699
       465                         -0.2563437              -6.9755
       466                         -0.2561709              -6.9708
       467                         -0.2552822              -6.9466
       468                         -0.2551189              -6.9421
       469                         -0.2542456              -6.9184
       470                         -0.2317465              -6.3061
       471                         -0.2290282              -6.2322
       ...                                ...                  ...
      1114                        510.2632890           13884.9708
      -------------------------------------------------------------
                  HL-Gap            0.0000437 Eh            0.0012 eV
             Fermi-level           -0.2989971 Eh           -8.1361 eV

  Mulliken/CM5 charges         n(s)   n(p)   n(d)
     1Co    0.30848  0.71254   0.327  0.986  7.379
     2C    -0.02194 -0.06322   1.085  2.937  0.000
     3C     0.05467  0.11517   1.110  2.835  0.000
     4C    -0.04089 -0.08736   1.085  2.956  0.000
     5C    -0.03838 -0.08433   1.078  2.960  0.000
     6C     0.05711  0.12109   1.106  2.837  0.000
     7N    -0.21588 -0.47593   1.318  3.898  0.000
     8C     0.00958  0.01503   1.084  2.907  0.000
     9C    -0.00251 -0.01074   1.077  2.926  0.000
    10C    -0.04124 -0.08934   1.064  2.977  0.000
    11C     0.08119  0.09832   1.116  2.803  0.000
    12O    -0.29415 -0.48933   1.629  4.665  0.000
    13C     0.06613  0.08591   1.091  2.843  0.000
    14O    -0.30301 -0.50293   1.622  4.681  0.000
    15C     0.07237  0.08745   1.104  2.824  0.000
    16O    -0.30326 -0.50683   1.624  4.680  0.000
    17C    -0.04789 -0.09739   1.051  2.997  0.000
    18C     0.05587  0.11907   1.103  2.841  0.000
    19C    -0.03829 -0.08427   1.077  2.961  0.000
    20C    -0.03866 -0.08422   1.084  2.955  0.000
    21N    -0.21408 -0.47347   1.319  3.895  0.000
    22C     0.06059  0.12578   1.116  2.823  0.000
    23C     0.01737  0.02434   1.079  2.903  0.000
    24C     0.06110  0.12642   1.116  2.823  0.000
    25C    -0.03792 -0.08350   1.082  2.956  0.000
    26C    -0.03674 -0.08289   1.077  2.959  0.000
    27C     0.05620  0.11922   1.104  2.839  0.000
    28N    -0.21397 -0.47346   1.319  3.895  0.000
    29C     0.00853  0.01397   1.083  2.908  0.000
    30C    -0.00275 -0.01091   1.077  2.926  0.000
    31C    -0.03988 -0.08800   1.063  2.977  0.000
    32C     0.08164  0.09875   1.115  2.803  0.000
    33O    -0.29332 -0.48852   1.629  4.664  0.000
    34C     0.06664  0.08643   1.092  2.842  0.000
    35O    -0.30241 -0.50230   1.623  4.680  0.000
    36C     0.07202  0.08709   1.104  2.824  0.000
    37O    -0.30369 -0.50726   1.623  4.680  0.000
    38C    -0.04784 -0.09719   1.052  2.996  0.000
    39C     0.05652  0.12070   1.106  2.838  0.000
    40C    -0.03955 -0.08562   1.078  2.962  0.000
    41C    -0.04140 -0.08788   1.084  2.957  0.000
    42C     0.05431  0.11464   1.110  2.835  0.000
    43N    -0.21589 -0.47613   1.318  3.898  0.000
    44H     0.02380  0.08272   0.976  0.000  0.000
    45H     0.02623  0.08285   0.974  0.000  0.000
    46H     0.02273  0.08168   0.977  0.000  0.000
    47H     0.02839  0.08895   0.972  0.000  0.000
    48H     0.23265  0.41209   0.767  0.000  0.000
    49H     0.23745  0.41683   0.763  0.000  0.000
    50H     0.23129  0.40380   0.769  0.000  0.000
    51H     0.02789  0.08789   0.972  0.000  0.000
    52H     0.02273  0.08173   0.977  0.000  0.000
    53H     0.02377  0.08188   0.976  0.000  0.000
    54H     0.02427  0.08234   0.976  0.000  0.000
    55H     0.02295  0.08186   0.977  0.000  0.000
    56H     0.02998  0.09087   0.970  0.000  0.000
    57H     0.23296  0.41240   0.767  0.000  0.000
    58H     0.23737  0.41674   0.763  0.000  0.000
    59H     0.23082  0.40333   0.769  0.000  0.000
    60H     0.02787  0.08811   0.972  0.000  0.000
    61H     0.02060  0.07941   0.979  0.000  0.000
    62H     0.02593  0.08253   0.974  0.000  0.000
    63Co    0.30957  0.71277   0.327  0.986  7.378
    64C    -0.02190 -0.06319   1.085  2.937  0.000
    65C     0.05471  0.11523   1.110  2.835  0.000
    66C    -0.04086 -0.08733   1.085  2.956  0.000
    67C    -0.03837 -0.08431   1.078  2.960  0.000
    68C     0.05717  0.12118   1.106  2.837  0.000
    69N    -0.21591 -0.47572   1.318  3.898  0.000
    70C     0.00960  0.01504   1.084  2.907  0.000
    71C    -0.00247 -0.01071   1.077  2.925  0.000
    72C    -0.04120 -0.08927   1.064  2.977  0.000
    73C     0.08126  0.09840   1.116  2.803  0.000
    74O    -0.29405 -0.48924   1.629  4.665  0.000
    75C     0.06613  0.08590   1.091  2.843  0.000
    76O    -0.30306 -0.50298   1.622  4.681  0.000
    77C     0.07236  0.08743   1.104  2.824  0.000
    78O    -0.30334 -0.50692   1.624  4.680  0.000
    79C    -0.04788 -0.09738   1.051  2.997  0.000
    80C     0.05598  0.11918   1.103  2.841  0.000
    81C    -0.03816 -0.08415   1.077  2.961  0.000
    82C    -0.03846 -0.08403   1.084  2.955  0.000
    83N    -0.21408 -0.47323   1.319  3.895  0.000
    84C     0.06072  0.12592   1.117  2.823  0.000
    85C     0.01749  0.02445   1.079  2.903  0.000
    86C     0.06127  0.12662   1.116  2.823  0.000
    87C    -0.03775 -0.08333   1.082  2.956  0.000
    88C    -0.03649 -0.08269   1.077  2.959  0.000
    89C     0.05631  0.11930   1.104  2.839  0.000
    90N    -0.21394 -0.47321   1.319  3.895  0.000
    91C     0.00869  0.01411   1.083  2.908  0.000
    92C    -0.00284 -0.01100   1.077  2.926  0.000
    93C    -0.03985 -0.08800   1.063  2.977  0.000
    94C     0.08176  0.09889   1.115  2.803  0.000
    95O    -0.29312 -0.48834   1.629  4.664  0.000
    96C     0.06685  0.08667   1.092  2.841  0.000
    97O    -0.30207 -0.50197   1.622  4.680  0.000
    98C     0.07207  0.08715   1.104  2.824  0.000
    99O    -0.30358 -0.50715   1.623  4.680  0.000
   100C    -0.04785 -0.09722   1.052  2.996  0.000
   101C     0.05663  0.12082   1.106  2.838  0.000
   102C    -0.03946 -0.08555   1.078  2.962  0.000
   103C    -0.04137 -0.08786   1.084  2.957  0.000
   104C     0.05435  0.11466   1.110  2.835  0.000
   105N    -0.21584 -0.47594   1.318  3.898  0.000
   106H     0.02381  0.08274   0.976  0.000  0.000
   107H     0.02625  0.08287   0.974  0.000  0.000
   108H     0.02272  0.08166   0.977  0.000  0.000
   109H     0.02853  0.08908   0.971  0.000  0.000
   110H     0.23265  0.41210   0.767  0.000  0.000
   111H     0.23735  0.41674   0.763  0.000  0.000
   112H     0.23119  0.40372   0.769  0.000  0.000
   113H     0.02787  0.08786   0.972  0.000  0.000
   114H     0.02291  0.08190   0.977  0.000  0.000
   115H     0.02405  0.08217   0.976  0.000  0.000
   116H     0.02458  0.08267   0.975  0.000  0.000
   117H     0.02327  0.08223   0.977  0.000  0.000
   118H     0.02996  0.09091   0.970  0.000  0.000
   119H     0.23321  0.41262   0.767  0.000  0.000
   120H     0.23753  0.41688   0.762  0.000  0.000
   121H     0.23084  0.40334   0.769  0.000  0.000
   122H     0.02783  0.08811   0.972  0.000  0.000
   123H     0.02070  0.07955   0.979  0.000  0.000
   124H     0.02600  0.08260   0.974  0.000  0.000
   125C    -0.01625 -0.01633   1.077  2.939  0.000
   126C    -0.01645 -0.01654   1.077  2.940  0.000
   127C    -0.02110 -0.02180   1.065  2.956  0.000
   128C    -0.01597 -0.01759   1.094  2.922  0.000
   129C    -0.02116 -0.02179   1.065  2.956  0.000
   130C    -0.01563 -0.01711   1.094  2.922  0.000
   131C    -0.01598 -0.01606   1.077  2.939  0.000
   132C    -0.01596 -0.01604   1.077  2.939  0.000
   133C    -0.02070 -0.02134   1.065  2.956  0.000
   134C    -0.01551 -0.01699   1.094  2.922  0.000
   135C    -0.02080 -0.02144   1.065  2.956  0.000
   136C    -0.01559 -0.01707   1.094  2.922  0.000
   137C    -0.01615 -0.01625   1.077  2.939  0.000
   138C    -0.01590 -0.01599   1.077  2.939  0.000
   139C    -0.02079 -0.02142   1.065  2.956  0.000
   140C    -0.01541 -0.01688   1.094  2.921  0.000
   141C    -0.02082 -0.02152   1.065  2.956  0.000
   142C    -0.01586 -0.01750   1.094  2.922  0.000
   143Co    0.31906  0.72906   0.324  0.983  7.374
   144C     0.01739  0.02451   1.080  2.903  0.000
   145C     0.06005  0.12521   1.116  2.824  0.000
   146C    -0.03924 -0.08479   1.082  2.957  0.000
   147C    -0.03812 -0.08425   1.078  2.960  0.000
   148C     0.05518  0.11857   1.104  2.841  0.000
   149N    -0.21348 -0.47527   1.318  3.896  0.000
   150C     0.01004  0.01552   1.085  2.905  0.000
   151C    -0.00449 -0.01263   1.073  2.931  0.000
   152C    -0.04628 -0.09565   1.051  2.995  0.000
   153C     0.08155  0.09888   1.112  2.806  0.000
   154O    -0.29393 -0.49087   1.624  4.670  0.000
   155C     0.07727  0.09955   1.102  2.821  0.000
   156O    -0.29409 -0.48668   1.626  4.668  0.000
   157C     0.07200  0.08707   1.105  2.823  0.000
   158O    -0.30172 -0.50670   1.621  4.680  0.000
   159C    -0.04687 -0.09625   1.052  2.995  0.000
   160C     0.05516  0.11827   1.104  2.840  0.000
   161C    -0.03766 -0.08387   1.078  2.959  0.000
   162C    -0.03884 -0.08439   1.082  2.957  0.000
   163N    -0.21353 -0.47482   1.318  3.896  0.000
   164C     0.06062  0.12603   1.116  2.823  0.000
   165C     0.01754  0.02465   1.080  2.903  0.000
   166C     0.06088  0.12611   1.116  2.823  0.000
   167C    -0.03792 -0.08347   1.082  2.955  0.000
   168C    -0.03618 -0.08230   1.077  2.959  0.000
   169C     0.05676  0.12008   1.103  2.840  0.000
   170N    -0.21295 -0.47461   1.317  3.896  0.000
   171C     0.01163  0.01714   1.084  2.904  0.000
   172C     0.00142 -0.00659   1.080  2.918  0.000
   173C    -0.03943 -0.08748   1.063  2.976  0.000
   174C     0.08419  0.10129   1.119  2.797  0.000
   175O    -0.29325 -0.48849   1.631  4.662  0.000
   176C     0.05576  0.07363   1.081  2.863  0.000
   177O    -0.31400 -0.51955   1.613  4.701  0.000
   178C     0.07737  0.09317   1.111  2.811  0.000
   179O    -0.30008 -0.49924   1.626  4.674  0.000
   180C    -0.03963 -0.08776   1.065  2.975  0.000
   181C     0.05653  0.11977   1.104  2.840  0.000
   182C    -0.03652 -0.08267   1.078  2.959  0.000
   183C    -0.03826 -0.08381   1.082  2.956  0.000
   184C     0.06071  0.12601   1.116  2.823  0.000
   185N    -0.21306 -0.47454   1.317  3.896  0.000
   186H     0.02344  0.08138   0.977  0.000  0.000
   187H     0.02202  0.08080   0.978  0.000  0.000
   188H     0.02917  0.08995   0.971  0.000  0.000
   189H     0.22979  0.40249   0.770  0.000  0.000
   190H     0.23522  0.41596   0.765  0.000  0.000
   191H     0.23240  0.40500   0.768  0.000  0.000
   192H     0.02842  0.08885   0.972  0.000  0.000
   193H     0.02276  0.08162   0.977  0.000  0.000
   194H     0.02406  0.08203   0.976  0.000  0.000
   195H     0.02415  0.08211   0.976  0.000  0.000
   196H     0.02302  0.08183   0.977  0.000  0.000
   197H     0.03079  0.09176   0.969  0.000  0.000
   198H     0.23086  0.41035   0.769  0.000  0.000
   199H     0.23657  0.41173   0.763  0.000  0.000
   200H     0.22857  0.40559   0.771  0.000  0.000
   201H     0.02986  0.09095   0.970  0.000  0.000
   202H     0.02195  0.08079   0.978  0.000  0.000
   203H     0.02378  0.08175   0.976  0.000  0.000
   204Co    0.32007  0.73030   0.324  0.983  7.373
   205C     0.01741  0.02452   1.080  2.903  0.000
   206C     0.06027  0.12549   1.116  2.824  0.000
   207C    -0.03903 -0.08457   1.082  2.957  0.000
   208C    -0.03790 -0.08402   1.078  2.960  0.000
   209C     0.05526  0.11861   1.104  2.841  0.000
   210N    -0.21345 -0.47525   1.318  3.896  0.000
   211C     0.01015  0.01563   1.085  2.905  0.000
   212C    -0.00452 -0.01267   1.073  2.931  0.000
   213C    -0.04632 -0.09565   1.051  2.995  0.000
   214C     0.08157  0.09892   1.112  2.806  0.000
   215O    -0.29391 -0.49086   1.624  4.670  0.000
   216C     0.07735  0.09965   1.102  2.821  0.000
   217O    -0.29401 -0.48661   1.626  4.668  0.000
   218C     0.07212  0.08720   1.105  2.823  0.000
   219O    -0.30152 -0.50650   1.621  4.680  0.000
   220C    -0.04685 -0.09625   1.052  2.995  0.000
   221C     0.05524  0.11841   1.104  2.840  0.000
   222C    -0.03760 -0.08379   1.078  2.959  0.000
   223C    -0.03878 -0.08432   1.082  2.957  0.000
   224N    -0.21348 -0.47483   1.318  3.896  0.000
   225C     0.06052  0.12588   1.116  2.823  0.000
   226C     0.01763  0.02476   1.080  2.902  0.000
   227C     0.06066  0.12581   1.116  2.823  0.000
   228C    -0.03806 -0.08361   1.082  2.956  0.000
   229C    -0.03629 -0.08240   1.077  2.959  0.000
   230C     0.05680  0.12021   1.103  2.840  0.000
   231N    -0.21281 -0.47486   1.317  3.895  0.000
   232C     0.01169  0.01720   1.084  2.904  0.000
   233C     0.00153 -0.00647   1.081  2.918  0.000
   234C    -0.03947 -0.08750   1.064  2.976  0.000
   235C     0.08432  0.10143   1.119  2.797  0.000
   236O    -0.29313 -0.48838   1.631  4.662  0.000
   237C     0.05540  0.07325   1.081  2.863  0.000
   238O    -0.31458 -0.52015   1.613  4.701  0.000
   239C     0.07765  0.09347   1.112  2.811  0.000
   240O    -0.29976 -0.49876   1.626  4.674  0.000
   241C    -0.03968 -0.08784   1.064  2.975  0.000
   242C     0.05656  0.11970   1.104  2.840  0.000
   243C    -0.03632 -0.08249   1.078  2.958  0.000
   244C    -0.03803 -0.08359   1.082  2.956  0.000
   245C     0.06099  0.12640   1.116  2.823  0.000
   246N    -0.21309 -0.47439   1.317  3.896  0.000
   247H     0.02379  0.08174   0.976  0.000  0.000
   248H     0.02244  0.08125   0.978  0.000  0.000
   249H     0.02918  0.08995   0.971  0.000  0.000
   250H     0.22972  0.40241   0.770  0.000  0.000
   251H     0.23537  0.41610   0.765  0.000  0.000
   252H     0.23257  0.40517   0.767  0.000  0.000
   253H     0.02847  0.08887   0.972  0.000  0.000
   254H     0.02278  0.08160   0.977  0.000  0.000
   255H     0.02418  0.08215   0.976  0.000  0.000
   256H     0.02381  0.08176   0.976  0.000  0.000
   257H     0.02280  0.08158   0.977  0.000  0.000
   258H     0.03077  0.09177   0.969  0.000  0.000
   259H     0.23087  0.41029   0.769  0.000  0.000
   260H     0.23662  0.41167   0.763  0.000  0.000
   261H     0.22857  0.40565   0.771  0.000  0.000
   262H     0.02991  0.09099   0.970  0.000  0.000
   263H     0.02222  0.08108   0.978  0.000  0.000
   264H     0.02417  0.08215   0.976  0.000  0.000

Wiberg/Mayer (AO) data.
largest (>0.10) Wiberg bond orders for each atom

 ---------------------------------------------------------------------------
     #   Z sym  total        # sym  WBO       # sym  WBO       # sym  WBO
 ---------------------------------------------------------------------------
     1  27 Co   3.660 --     7 N    0.714    43 N    0.713    21 N    0.710
                            28 N    0.709
     2   6 C    3.839 --    42 C    1.394     3 C    1.393    44 H    0.998
     3   6 C    3.955 --     2 C    1.393     7 N    1.246     4 C    1.199
     4   6 C    3.861 --     5 C    1.645     3 C    1.199    45 H    0.994
     5   6 C    3.835 --     4 C    1.645     6 C    1.205    46 H    1.000
     6   6 C    3.931 --     8 C    1.366     7 N    1.248     5 C    1.205
     7   7 N    2.995 --     6 C    1.248     3 C    1.246     1 Co   0.714
     8   6 C    3.838 --    18 C    1.374     6 C    1.366     9 C    1.042
     9   6 C    3.890 --    10 C    1.418    17 C    1.410     8 C    1.042
    10   6 C    3.852 --     9 C    1.418    11 C    1.392    47 H    0.994
    11   6 C    3.979 --    10 C    1.392    13 C    1.359    12 O    1.124
    12   8 O    2.158 --    11 C    1.124    48 H    0.964
    13   6 C    3.913 --    15 C    1.370    11 C    1.359    14 O    1.088
    14   8 O    2.100 --    13 C    1.088    49 H    0.962
    15   6 C    3.939 --    17 C    1.398    13 C    1.370    16 O    1.093
    16   8 O    2.112 --    15 C    1.093    50 H    0.963
    17   6 C    3.821 --     9 C    1.410    15 C    1.398    51 H    0.993
    18   6 C    3.922 --     8 C    1.374    21 N    1.237    19 C    1.210
    19   6 C    3.832 --    20 C    1.634    18 C    1.210    52 H    1.000
    20   6 C    3.852 --    19 C    1.634    22 C    1.219    53 H    0.999
    21   7 N    3.003 --    22 C    1.269    18 C    1.237     1 Co   0.710
    22   6 C    3.933 --    23 C    1.305    21 N    1.269    20 C    1.219
    23   6 C    3.869 --    22 C    1.305    24 C    1.303   128 C    1.212
    24   6 C    3.933 --    23 C    1.303    28 N    1.271    25 C    1.219
    25   6 C    3.850 --    26 C    1.633    24 C    1.219    54 H    0.999
    26   6 C    3.831 --    25 C    1.633    27 C    1.210    55 H    0.999
    27   6 C    3.924 --    29 C    1.375    28 N    1.235    26 C    1.210
    28   7 N    3.002 --    24 C    1.271    27 C    1.235     1 Co   0.709
    29   6 C    3.838 --    27 C    1.375    39 C    1.359    30 C    1.051
    30   6 C    3.890 --    31 C    1.414    38 C    1.406    29 C    1.051
    31   6 C    3.849 --    30 C    1.414    32 C    1.393    56 H    0.994
    32   6 C    3.979 --    31 C    1.393    34 C    1.358    33 O    1.124
    33   8 O    2.159 --    32 C    1.124    57 H    0.964
    34   6 C    3.913 --    36 C    1.369    32 C    1.358    35 O    1.089
    35   8 O    2.103 --    34 C    1.089    58 H    0.962
    36   6 C    3.939 --    38 C    1.401    34 C    1.369    37 O    1.092
    37   8 O    2.111 --    36 C    1.092    59 H    0.963
    38   6 C    3.821 --    30 C    1.406    36 C    1.401    60 H    0.993
    39   6 C    3.932 --    29 C    1.359    43 N    1.253    40 C    1.207
    40   6 C    3.836 --    41 C    1.641    39 C    1.207    61 H    1.000
    41   6 C    3.857 --    40 C    1.641    42 C    1.199    62 H    0.994
    42   6 C    3.955 --     2 C    1.394    43 N    1.243    41 C    1.199
    43   7 N    2.994 --    39 C    1.253    42 C    1.243     1 Co   0.713
    44   1 H    1.037 --     2 C    0.998
    45   1 H    1.027 --     4 C    0.994
    46   1 H    1.036 --     5 C    1.000
    47   1 H    1.040 --    10 C    0.994
    48   1 H    0.997 --    12 O    0.964
    49   1 H    0.992 --    14 O    0.962
    50   1 H    0.997 --    16 O    0.963
    51   1 H    1.030 --    17 C    0.993
    52   1 H    1.036 --    19 C    1.000
    53   1 H    1.038 --    20 C    0.999
    54   1 H    1.038 --    25 C    0.999
    55   1 H    1.038 --    26 C    0.999
    56   1 H    1.040 --    31 C    0.994
    57   1 H    0.996 --    33 O    0.964
    58   1 H    0.992 --    35 O    0.962
    59   1 H    0.997 --    37 O    0.963
    60   1 H    1.028 --    38 C    0.993
    61   1 H    1.037 --    40 C    1.000
    62   1 H    1.028 --    41 C    0.994
    63  27 Co   3.652 --    69 N    0.713   105 N    0.712    90 N    0.709
                            83 N    0.709
    64   6 C    3.839 --   104 C    1.394    65 C    1.393   106 H    0.998
    65   6 C    3.955 --    64 C    1.393    69 N    1.246    66 C    1.199
    66   6 C    3.861 --    67 C    1.645    65 C    1.199   107 H    0.994
    67   6 C    3.835 --    66 C    1.645    68 C    1.205   108 H    1.001
    68   6 C    3.930 --    70 C    1.367    69 N    1.248    67 C    1.205
    69   7 N    2.995 --    68 C    1.248    65 C    1.246    63 Co   0.713
    70   6 C    3.837 --    80 C    1.374    68 C    1.367    71 C    1.041
    71   6 C    3.890 --    72 C    1.418    79 C    1.411    70 C    1.041
    72   6 C    3.853 --    71 C    1.418    73 C    1.391   109 H    0.994
    73   6 C    3.979 --    72 C    1.391    75 C    1.359    74 O    1.124
    74   8 O    2.158 --    73 C    1.124   110 H    0.964
    75   6 C    3.913 --    77 C    1.370    73 C    1.359    76 O    1.088
    76   8 O    2.100 --    75 C    1.088   111 H    0.962
    77   6 C    3.939 --    79 C    1.398    75 C    1.370    78 O    1.093
    78   8 O    2.111 --    77 C    1.093   112 H    0.963
    79   6 C    3.821 --    71 C    1.411    77 C    1.398   113 H    0.993
    80   6 C    3.922 --    70 C    1.374    83 N    1.237    81 C    1.210
    81   6 C    3.832 --    82 C    1.634    80 C    1.210   114 H    1.000
    82   6 C    3.852 --    81 C    1.634    84 C    1.218   115 H    0.999
    83   7 N    3.003 --    84 C    1.269    80 C    1.237    63 Co   0.709
    84   6 C    3.933 --    85 C    1.305    83 N    1.269    82 C    1.218
    85   6 C    3.869 --    84 C    1.305    86 C    1.303   142 C    1.213
    86   6 C    3.933 --    85 C    1.303    90 N    1.271    87 C    1.219
    87   6 C    3.848 --    88 C    1.633    86 C    1.219   116 H    0.999
    88   6 C    3.831 --    87 C    1.633    89 C    1.209   117 H    0.999
    89   6 C    3.924 --    91 C    1.376    90 N    1.234    88 C    1.209
    90   7 N    3.003 --    86 C    1.271    89 C    1.234    63 Co   0.709
    91   6 C    3.838 --    89 C    1.376   101 C    1.358    92 C    1.052
    92   6 C    3.890 --    93 C    1.413   100 C    1.405    91 C    1.052
    93   6 C    3.848 --    92 C    1.413    94 C    1.393   118 H    0.994
    94   6 C    3.978 --    93 C    1.393    96 C    1.358    95 O    1.125
    95   8 O    2.159 --    94 C    1.125   119 H    0.964
    96   6 C    3.913 --    98 C    1.369    94 C    1.358    97 O    1.090
    97   8 O    2.103 --    96 C    1.090   120 H    0.962
    98   6 C    3.939 --   100 C    1.401    96 C    1.369    99 O    1.092
    99   8 O    2.111 --    98 C    1.092   121 H    0.963
   100   6 C    3.819 --    92 C    1.405    98 C    1.401   122 H    0.993
   101   6 C    3.932 --    91 C    1.358   105 N    1.253   102 C    1.208
   102   6 C    3.836 --   103 C    1.641   101 C    1.208   123 H    1.000
   103   6 C    3.856 --   102 C    1.641   104 C    1.200   124 H    0.994
   104   6 C    3.955 --    64 C    1.394   105 N    1.243   103 C    1.200
   105   7 N    2.994 --   101 C    1.253   104 C    1.243    63 Co   0.712
   106   1 H    1.037 --    64 C    0.998
   107   1 H    1.027 --    66 C    0.994
   108   1 H    1.036 --    67 C    1.001
   109   1 H    1.039 --    72 C    0.994
   110   1 H    0.997 --    74 O    0.964
   111   1 H    0.992 --    76 O    0.962
   112   1 H    0.997 --    78 O    0.963
   113   1 H    1.030 --    79 C    0.993
   114   1 H    1.035 --    81 C    1.000
   115   1 H    1.038 --    82 C    0.999
   116   1 H    1.038 --    87 C    0.999
   117   1 H    1.038 --    88 C    0.999
   118   1 H    1.040 --    93 C    0.994
   119   1 H    0.996 --    95 O    0.964
   120   1 H    0.992 --    97 O    0.962
   121   1 H    0.997 --    99 O    0.963
   122   1 H    1.028 --   100 C    0.993
   123   1 H    1.037 --   102 C    1.000
   124   1 H    1.027 --   103 C    0.994
   125   6 C    3.845 --   126 C    2.385   129 C    1.352   128 C    0.177
   126   6 C    3.843 --   125 C    2.385   127 C    1.351   130 C    0.177
   127   6 C    3.831 --   128 C    2.487   126 C    1.351
   128   6 C    3.772 --   127 C    2.487    23 C    1.212   125 C    0.177
   129   6 C    3.829 --   130 C    2.483   125 C    1.352
   130   6 C    3.773 --   129 C    2.483   144 C    1.217   126 C    0.177
   131   6 C    3.842 --   132 C    2.383   135 C    1.353   134 C    0.176
   132   6 C    3.842 --   131 C    2.383   133 C    1.353   136 C    0.176
   133   6 C    3.828 --   134 C    2.482   132 C    1.353
   134   6 C    3.771 --   133 C    2.482   165 C    1.216   131 C    0.176
   135   6 C    3.828 --   136 C    2.482   131 C    1.353
   136   6 C    3.771 --   135 C    2.482   205 C    1.216   132 C    0.176
   137   6 C    3.843 --   138 C    2.385   141 C    1.352   140 C    0.177
   138   6 C    3.845 --   137 C    2.385   139 C    1.353   142 C    0.177
   139   6 C    3.829 --   140 C    2.483   138 C    1.353
   140   6 C    3.773 --   139 C    2.483   226 C    1.217   137 C    0.177
   141   6 C    3.831 --   142 C    2.486   137 C    1.352
   142   6 C    3.772 --   141 C    2.486    85 C    1.213   138 C    0.177
   143  27 Co   3.643 --   185 N    0.709   163 N    0.709   170 N    0.709
                           149 N    0.708
   144   6 C    3.860 --   184 C    1.301   145 C    1.300   130 C    1.217
   145   6 C    3.932 --   144 C    1.300   149 N    1.266   146 C    1.223
   146   6 C    3.845 --   147 C    1.625   145 C    1.223   186 H    0.999
   147   6 C    3.832 --   146 C    1.625   148 C    1.216   187 H    1.000
   148   6 C    3.920 --   150 C    1.361   149 N    1.240   147 C    1.216
   149   7 N    2.993 --   145 C    1.266   148 C    1.240   143 Co   0.708
   150   6 C    3.836 --   160 C    1.368   148 C    1.361   151 C    1.058
   151   6 C    3.885 --   152 C    1.410   159 C    1.401   150 C    1.058
   152   6 C    3.815 --   151 C    1.410   153 C    1.396   188 H    0.994
   153   6 C    3.969 --   152 C    1.396   155 C    1.353   154 O    1.116
   154   8 O    2.148 --   153 C    1.116   189 H    0.964
   155   6 C    3.946 --   157 C    1.357   153 C    1.353   156 O    1.117
   156   8 O    2.148 --   155 C    1.117   190 H    0.962
   157   6 C    3.938 --   159 C    1.409   155 C    1.357   158 O    1.090
   158   8 O    2.106 --   157 C    1.090   191 H    0.962
   159   6 C    3.819 --   157 C    1.409   151 C    1.401   192 H    0.993
   160   6 C    3.921 --   150 C    1.368   163 N    1.236   161 C    1.214
   161   6 C    3.833 --   162 C    1.627   160 C    1.214   193 H    0.999
   162   6 C    3.845 --   161 C    1.627   164 C    1.223   194 H    0.999
   163   7 N    2.994 --   164 C    1.270   160 C    1.236   143 Co   0.709
   164   6 C    3.932 --   165 C    1.299   163 N    1.270   162 C    1.223
   165   6 C    3.860 --   166 C    1.302   164 C    1.299   134 C    1.216
   166   6 C    3.932 --   165 C    1.302   170 N    1.267   167 C    1.221
   167   6 C    3.849 --   168 C    1.629   166 C    1.221   195 H    0.999
   168   6 C    3.831 --   167 C    1.629   169 C    1.213   196 H    0.999
   169   6 C    3.921 --   171 C    1.365   170 N    1.238   168 C    1.213
   170   7 N    2.993 --   166 C    1.267   169 C    1.238   143 Co   0.709
   171   6 C    3.834 --   181 C    1.367   169 C    1.365   172 C    1.054
   172   6 C    3.896 --   180 C    1.413   173 C    1.411   171 C    1.054
   173   6 C    3.846 --   172 C    1.411   174 C    1.392   197 H    0.994
   174   6 C    3.982 --   173 C    1.392   176 C    1.363   175 O    1.131
   175   8 O    2.171 --   174 C    1.131   198 H    0.963
   176   6 C    3.873 --   178 C    1.378   174 C    1.363   177 O    1.054
   177   8 O    2.041 --   176 C    1.054   199 H    0.961
   178   6 C    3.957 --   180 C    1.392   176 C    1.378   179 O    1.109
   179   8 O    2.136 --   178 C    1.109   200 H    0.967
   180   6 C    3.849 --   172 C    1.413   178 C    1.392   201 H    0.993
   181   6 C    3.921 --   171 C    1.367   185 N    1.237   182 C    1.213
   182   6 C    3.831 --   183 C    1.629   181 C    1.213   202 H    1.000
   183   6 C    3.846 --   182 C    1.629   184 C    1.222   203 H    0.999
   184   6 C    3.932 --   144 C    1.301   185 N    1.268   183 C    1.222
   185   7 N    2.994 --   184 C    1.268   181 C    1.237   143 Co   0.709
   186   1 H    1.036 --   146 C    0.999
   187   1 H    1.036 --   147 C    1.000
   188   1 H    1.026 --   152 C    0.994
   189   1 H    1.003 --   154 O    0.964
   190   1 H    0.997 --   156 O    0.962
   191   1 H    0.997 --   158 O    0.962
   192   1 H    1.028 --   159 C    0.993
   193   1 H    1.037 --   161 C    0.999
   194   1 H    1.035 --   162 C    0.999
   195   1 H    1.036 --   167 C    0.999
   196   1 H    1.039 --   168 C    0.999
   197   1 H    1.038 --   173 C    0.994
   198   1 H    0.999 --   175 O    0.963
   199   1 H    0.983 --   177 O    0.961
   200   1 H    0.995 --   179 O    0.967
   201   1 H    1.039 --   180 C    0.993
   202   1 H    1.039 --   182 C    1.000
   203   1 H    1.036 --   183 C    0.999
   204  27 Co   3.641 --   246 N    0.709   224 N    0.709   231 N    0.709
                           210 N    0.708
   205   6 C    3.860 --   245 C    1.300   206 C    1.300   136 C    1.216
   206   6 C    3.932 --   205 C    1.300   210 N    1.267   207 C    1.223
   207   6 C    3.845 --   208 C    1.626   206 C    1.223   247 H    0.999
   208   6 C    3.832 --   207 C    1.626   209 C    1.215   248 H    1.000
   209   6 C    3.920 --   211 C    1.362   210 N    1.239   208 C    1.215
   210   7 N    2.994 --   206 C    1.267   209 C    1.239   204 Co   0.708
   211   6 C    3.835 --   221 C    1.366   209 C    1.362   212 C    1.058
   212   6 C    3.885 --   213 C    1.410   220 C    1.401   211 C    1.058
   213   6 C    3.815 --   212 C    1.410   214 C    1.396   249 H    0.994
   214   6 C    3.969 --   213 C    1.396   216 C    1.353   215 O    1.116
   215   8 O    2.148 --   214 C    1.116   250 H    0.964
   216   6 C    3.946 --   218 C    1.357   214 C    1.353   217 O    1.117
   217   8 O    2.148 --   216 C    1.117   251 H    0.961
   218   6 C    3.938 --   220 C    1.409   216 C    1.357   219 O    1.090
   219   8 O    2.106 --   218 C    1.090   252 H    0.962
   220   6 C    3.819 --   218 C    1.409   212 C    1.401   253 H    0.993
   221   6 C    3.921 --   211 C    1.366   224 N    1.236   222 C    1.214
   222   6 C    3.833 --   223 C    1.627   221 C    1.214   254 H    0.999
   223   6 C    3.845 --   222 C    1.627   225 C    1.223   255 H    0.999
   224   7 N    2.994 --   225 C    1.269   221 C    1.236   204 Co   0.709
   225   6 C    3.932 --   226 C    1.298   224 N    1.269   223 C    1.223
   226   6 C    3.860 --   227 C    1.301   225 C    1.298   140 C    1.217
   227   6 C    3.932 --   226 C    1.301   231 N    1.265   228 C    1.222
   228   6 C    3.849 --   229 C    1.628   227 C    1.222   256 H    0.999
   229   6 C    3.831 --   228 C    1.628   230 C    1.214   257 H    0.999
   230   6 C    3.920 --   232 C    1.362   231 N    1.240   229 C    1.214
   231   7 N    2.993 --   227 C    1.265   230 C    1.240   204 Co   0.709
   232   6 C    3.834 --   242 C    1.369   230 C    1.362   233 C    1.055
   233   6 C    3.896 --   241 C    1.412   234 C    1.411   232 C    1.055
   234   6 C    3.846 --   233 C    1.411   235 C    1.391   258 H    0.994
   235   6 C    3.982 --   234 C    1.391   237 C    1.363   236 O    1.132
   236   8 O    2.172 --   235 C    1.132   259 H    0.963
   237   6 C    3.872 --   239 C    1.378   235 C    1.363   238 O    1.053
   238   8 O    2.039 --   237 C    1.053   260 H    0.961
   239   6 C    3.957 --   241 C    1.392   237 C    1.378   240 O    1.110
   240   8 O    2.138 --   239 C    1.110   261 H    0.967
   241   6 C    3.849 --   233 C    1.412   239 C    1.392   262 H    0.993
   242   6 C    3.921 --   232 C    1.369   246 N    1.235   243 C    1.212
   243   6 C    3.831 --   244 C    1.630   242 C    1.212   263 H    1.000
   244   6 C    3.846 --   243 C    1.630   245 C    1.221   264 H    0.999
   245   6 C    3.932 --   205 C    1.300   246 N    1.270   244 C    1.221
   246   7 N    2.994 --   245 C    1.270   242 C    1.235   204 Co   0.709
   247   1 H    1.035 --   207 C    0.999
   248   1 H    1.036 --   208 C    1.000
   249   1 H    1.026 --   213 C    0.994
   250   1 H    1.003 --   215 O    0.964
   251   1 H    0.997 --   217 O    0.961
   252   1 H    0.997 --   219 O    0.962
   253   1 H    1.028 --   220 C    0.993
   254   1 H    1.037 --   222 C    0.999
   255   1 H    1.035 --   223 C    0.999
   256   1 H    1.037 --   228 C    0.999
   257   1 H    1.039 --   229 C    0.999
   258   1 H    1.038 --   234 C    0.994
   259   1 H    0.999 --   236 O    0.963
   260   1 H    0.983 --   238 O    0.961
   261   1 H    0.996 --   240 O    0.967
   262   1 H    1.039 --   241 C    0.993
   263   1 H    1.039 --   243 C    1.000
   264   1 H    1.036 --   244 C    0.999
 ---------------------------------------------------------------------------

Topologies differ in total number of bonds
Writing topology from bond orders to xtbtopo.mol

 dipole moment from electron density (au)
     X       Y       Z   
-134.0326  -4.0090  -0.3342  total (Debye):  340.830


           -------------------------------------------------
          | TOTAL ENERGY             -581.385323137358 Eh   |
          | GRADIENT NORM               0.110035443262 Eh/α |
          | HOMO-LUMO GAP               0.001188265461 eV   |
           -------------------------------------------------
########################################################################
[WARNING] Runtime exception occurred
-1- restart_readRestart: Dimension missmatch in restart file.
########################################################################

------------------------------------------------------------------------
 * finished run on 2022/07/30 at 04:19:15.820     
------------------------------------------------------------------------
 total:
 * wall-time:     0 d,  0 h,  1 min,  7.453 sec
 *  cpu-time:     0 d,  0 h,  1 min,  7.111 sec
 * ratio c/w:     0.995 speedup
 SCF:
 * wall-time:     0 d,  0 h,  1 min,  6.704 sec
 *  cpu-time:     0 d,  0 h,  1 min,  6.368 sec
 * ratio c/w:     0.995 speedup

