      -----------------------------------------------------------      
     |                   =====================                   |     
     |                           x T B                           |     
     |                   =====================                   |     
     |                         S. Grimme                         |     
     |          Mulliken Center for Theoretical Chemistry        |     
     |                    University of Bonn                     |     
      -----------------------------------------------------------      

   * xtb version 6.5.1 (b24c23e) compiled by 'conda@728c89f4b128' on 2022-07-12

   xtb is free software: you can redistribute it and/or modify it under
   the terms of the GNU Lesser General Public License as published by
   the Free Software Foundation, either version 3 of the License, or
   (at your option) any later version.
   
   xtb is distributed in the hope that it will be useful,
   but WITHOUT ANY WARRANTY; without even the implied warranty of
   MERCHANTABILITY or FITNESS FOR A PARTICULAR PURPOSE.  See the
   GNU Lesser General Public License for more details.
   
   Cite this work as:
   * C. Bannwarth, E. Caldeweyher, S. Ehlert, A. Hansen, P. Pracht,
     J. Seibert, S. Spicher, S. Grimme, WIREs Comput. Mol. Sci., 2020, 11,
     e01493. DOI: 10.1002/wcms.1493
   
   for GFN2-xTB:
   * C. Bannwarth, S. Ehlert and S. Grimme., J. Chem. Theory Comput., 2019,
     15, 1652-1671. DOI: 10.1021/acs.jctc.8b01176
   for GFN1-xTB:
   * S. Grimme, C. Bannwarth, P. Shushkov, J. Chem. Theory Comput., 2017,
     13, 1989-2009. DOI: 10.1021/acs.jctc.7b00118
   for GFN0-xTB:
   * P. Pracht, E. Caldeweyher, S. Ehlert, S. Grimme, ChemRxiv, 2019, preprint.
     DOI: 10.26434/chemrxiv.8326202.v1
   for GFN-FF:
   * S. Spicher and S. Grimme, Angew. Chem. Int. Ed., 2020, 59, 15665-15673.
     DOI: 10.1002/anie.202004239
   
   for ALPB and GBSA implicit solvation:
   * S. Ehlert, M. Stahn, S. Spicher, S. Grimme, J. Chem. Theory Comput.,
     2021, 17, 4250-4261. DOI: 10.1021/acs.jctc.1c00471
   
   for DFT-D4:
   * E. Caldeweyher, C. Bannwarth and S. Grimme, J. Chem. Phys., 2017,
     147, 034112. DOI: 10.1063/1.4993215
   * E. Caldeweyher, S. Ehlert, A. Hansen, H. Neugebauer, S. Spicher,
     C. Bannwarth and S. Grimme, J. Chem. Phys., 2019, 150, 154122.
     DOI: 10.1063/1.5090222
   * E. Caldeweyher, J.-M. Mewes, S. Ehlert and S. Grimme, Phys. Chem. Chem. Phys.
     2020, 22, 8499-8512. DOI: 10.1039/D0CP00502A
   
   for sTDA-xTB:
   * S. Grimme and C. Bannwarth, J. Chem. Phys., 2016, 145, 054103.
     DOI: 10.1063/1.4959605
   
   in the mass-spec context:
   * V. Asgeirsson, C. Bauer and S. Grimme, Chem. Sci., 2017, 8, 4879.
     DOI: 10.1039/c7sc00601b
   * J. Koopman and S. Grimme, ACS Omega 2019, 4, 12, 15120-15133.
     DOI: 10.1021/acsomega.9b02011
   
   for metadynamics refer to:
   * S. Grimme, J. Chem. Theory Comput., 2019, 155, 2847-2862
     DOI: 10.1021/acs.jctc.9b00143
   
   for SPH calculations refer to:
   * S. Spicher and S. Grimme, J. Chem. Theory Comput., 2021, 17, 1701-1714
     DOI: 10.1021/acs.jctc.0c01306
   
   with help from (in alphabetical order)
   P. Atkinson, C. Bannwarth, F. Bohle, G. Brandenburg, E. Caldeweyher
   M. Checinski, S. Dohm, S. Ehlert, S. Ehrlich, I. Gerasimov, C. Hölzer
   A. Katbashev, J. Koopman, C. Lavigne, S. Lehtola, F. März, M. Müller,
   F. Musil, H. Neugebauer, J. Pisarek, C. Plett, P. Pracht, F. Pultar,
   J. Seibert, P. Shushkov, S. Spicher, M. Stahn, M. Steiner, T. Strunk,
   J. Stückrath, T. Rose, and J. Unsleber
   
 * started run on 2022/07/30 at 00:23:48.692     

           -------------------------------------------------
          |                Calculation Setup                |
           -------------------------------------------------

          program call               : xtb Co_DHP_C4_4.xyz --gfn 1 --opt -T 48
          hostname                   : cx3-14-19.cx3.hpc.ic.ac.uk
          coordinate file            : Co_DHP_C4_4.xyz
          omp threads                :                     1

   ID    Z sym.   atoms
    1   27 Co     1, 59, 129, 186
    2    6 C      2-6, 8-11, 13-17, 19-24, 26-29, 31-36, 60-64, 66-69, 71-75,
                  77-82, 84-87, 89-94, 117-128, 130-134, 136-139, 141-145,
                  147-152, 154-157, 159-164, 187-191, 193-196, 198-202,
                  204-209, 211-214, 216-221
    3    7 N      7, 12, 18, 25, 30, 37, 65, 70, 76, 83, 88, 95, 135, 140,
                  146, 153, 158, 165, 192, 197, 203, 210, 215, 222
    4    1 H      38-58, 96-116, 166-185, 223-242
########################################################################
[WARNING] Please study the warnings concerning your input carefully
-1- prog_main_parseArguments: Unknown option '-T' provided
########################################################################

           -------------------------------------------------
          |                 G F N 1 - x T B                 |
           -------------------------------------------------

        Reference                      10.1021/acs.jctc.7b00118
      * Hamiltonian:
        H0-scaling (s, p, d)           1.850000    2.250000    2.000000
        zeta-weighting                 0.000000
      * Dispersion:
        s8                             2.400000
        a1                             0.630000
        a2                             5.000000
        s9                             0.000000
      * Repulsion:
        kExp                           1.500000
        rExp                           1.000000
      * Coulomb:
        alpha                          2.000000
        third order                    atomic
        anisotropic                    false
      * Halogen bond correction:
        rad-scale                      1.300000
        damping                        0.440000


          ...................................................
          :                      SETUP                      :
          :.................................................:
          :  # basis functions                 828          :
          :  # atomic orbitals                 824          :
          :  # shells                          488          :
          :  # electrons                       766          :
          :  # halogen bonds                     0          :
          :  max. iterations                   250          :
          :  Hamiltonian                  GFN1-xTB          :
          :  restarted?                      false          :
          :  GBSA solvation                  false          :
          :  PC potential                    false          :
          :  electronic temp.          300.0000000     K    :
          :  accuracy                    1.0000000          :
          :  -> integral cutoff          0.2500000E+02      :
          :  -> integral neglect         0.1000000E-07      :
          :  -> SCF convergence          0.1000000E-05 Eh   :
          :  -> wf. convergence          0.2000000E-04 e    :
          :  Broyden damping             0.4000000          :
          ...................................................

 iter      E             dE          RMSdq      gap      omega  full diag
   1   -415.0995981 -0.415100E+03  0.109E+01    0.08       0.0  T
   2   -349.9732172  0.651264E+02  0.124E+01    0.27       1.0  T
   3   -399.9301589 -0.499569E+02  0.699E+00    0.09       1.0  T
   4    661.5962756  0.106153E+04  0.152E+01    0.03       1.0  T
   5   -240.9907560 -0.902587E+03  0.868E+00    0.04       1.0  T
   6   -388.7371062 -0.147746E+03  0.479E+00    0.05       1.0  T
   7   -385.1360039  0.360110E+01  0.481E+00    0.06       1.0  T
   8   -380.9583752  0.417763E+01  0.507E+00    0.10       1.0  T
   9   -401.5906221 -0.206322E+02  0.375E+00    0.07       1.0  T
  10   -408.5922838 -0.700166E+01  0.341E+00    0.06       1.0  T
  11   -410.6940717 -0.210179E+01  0.323E+00    0.04       1.0  T
  12   -410.9600519 -0.265980E+00  0.298E+00    0.02       1.0  T
  13   -412.9236366 -0.196358E+01  0.268E+00    0.06       1.0  T
  14   -414.9129201 -0.198928E+01  0.241E+00    0.11       1.0  T
  15   -415.7030982 -0.790178E+00  0.223E+00    0.05       1.0  T
  16   -416.9667886 -0.126369E+01  0.184E+00    0.16       1.0  T
  17   -416.1301884  0.836600E+00  0.200E+00    0.01       1.0  T
  18   -416.6886546 -0.558466E+00  0.154E+00    0.04       1.0  T
  19   -417.1669969 -0.478342E+00  0.990E-01    0.06       1.0  T
  20   -416.9340677  0.232929E+00  0.111E+00    0.02       1.0  T
  21   -417.0334009 -0.993332E-01  0.105E+00    0.02       1.0  T
  22   -416.8092657  0.224135E+00  0.130E+00    0.03       1.0  T
  23   -416.7957566  0.135091E-01  0.131E+00    0.03       1.0  T
  24   -417.2334654 -0.437709E+00  0.986E-01    0.06       1.0  T
  25   -417.3025043 -0.690389E-01  0.924E-01    0.07       1.0  T
  26   -416.5526782  0.749826E+00  0.149E+00    0.04       1.0  T
  27   -417.4824065 -0.929728E+00  0.809E-01    0.04       1.0  T
  28   -417.9502512 -0.467845E+00  0.972E-01    0.03       1.0  T
  29   -418.1457208 -0.195470E+00  0.353E-01    0.03       1.0  T
  30   -417.8246200  0.321101E+00  0.913E-01    0.06       1.0  T
  31   -417.6823921  0.142228E+00  0.115E+00    0.05       1.0  T
  32   -417.8008480 -0.118456E+00  0.101E+00    0.06       1.0  T
  33   -417.7054119  0.954361E-01  0.111E+00    0.06       1.0  T
  34   -417.5271712  0.178241E+00  0.126E+00    0.06       1.0  T
  35   -417.9799464 -0.452775E+00  0.877E-01    0.03       1.0  T
  36   -417.0343683  0.945578E+00  0.150E+00    0.04       1.0  T
  37   -417.6841521 -0.649784E+00  0.109E+00    0.03       1.0  T
  38   -417.6247500  0.594022E-01  0.111E+00    0.01       1.0  T
  39   -417.8139836 -0.189234E+00  0.951E-01    0.04       1.0  T
  40   -417.8770813 -0.630977E-01  0.862E-01    0.03       1.0  T
  41   -418.1335116 -0.256430E+00  0.512E-01    0.01       1.0  T
  42   -418.0958823  0.376293E-01  0.584E-01    0.01       1.0  T
  43   -418.2809122 -0.185030E+00  0.243E-01    0.05       1.0  T
  44   -418.2395374  0.413747E-01  0.329E-01    0.03       1.0  T
  45   -418.2696498 -0.301124E-01  0.264E-01    0.04       1.0  T
  46   -418.2113681  0.582817E-01  0.387E-01    0.03       1.0  T
  47   -418.2416486 -0.302805E-01  0.326E-01    0.03       1.0  T
  48   -418.2347175  0.693106E-02  0.340E-01    0.03       1.0  T
  49   -418.2511705 -0.164530E-01  0.292E-01    0.03       1.0  T
  50   -418.2738510 -0.226805E-01  0.214E-01    0.03       1.0  T
  51   -418.3014361 -0.275852E-01  0.874E-02    0.03       1.0  T
  52   -418.3049466 -0.351047E-02  0.203E-02    0.04       1.0  T
  53   -418.3049882 -0.415593E-04  0.251E-02    0.04       1.0  T
  54   -418.3048477  0.140469E-03  0.299E-02    0.04       1.0  T
  55   -418.3048266  0.210981E-04  0.305E-02    0.04       1.0  T
  56   -418.3052554 -0.428758E-03  0.111E-02    0.04       1.0  T
  57   -418.3052789 -0.235107E-04  0.735E-03    0.04       1.0  T
  58   -418.3052772  0.169631E-05  0.745E-03    0.04       1.0  T
  59   -418.3052804 -0.321181E-05  0.737E-03    0.04       1.0  T
  60   -418.3052774  0.296864E-05  0.777E-03    0.04       1.0  T
  61   -418.3052767  0.713717E-06  0.786E-03    0.04       1.0  T
  62   -418.3052974 -0.207249E-04  0.501E-03    0.04       1.3  T
  63   -418.3053075 -0.100553E-04  0.291E-03    0.04       2.2  T
  64   -418.3053120 -0.453726E-05  0.106E-03    0.04       6.1  T
  65   -418.3053122 -0.233678E-06  0.783E-04    0.04       8.2  T
  66   -418.3053124 -0.165516E-06  0.475E-04    0.04      13.5  T
  67   -418.3053125 -0.791137E-07  0.316E-04    0.04      20.3  T
  68   -418.3053125 -0.257031E-07  0.196E-04    0.04      32.7  T
  69   -418.3053125 -0.545322E-08  0.167E-04    0.04      38.5  T

   *** convergence criteria satisfied after 69 iterations ***

         #    Occupation            Energy/Eh            Energy/eV
      -------------------------------------------------------------
         1        2.0000           -0.7768066             -21.1380
       ...           ...                  ...                  ...
       377        1.9998           -0.3652991              -9.9403
       378        1.9993           -0.3641694              -9.9096
       379        1.9993           -0.3640901              -9.9074
       380        1.9453           -0.3599336              -9.7943
       381        1.7639           -0.3584521              -9.7540
       382        1.5963           -0.3578475              -9.7375
       383        1.5250           -0.3576495              -9.7321 (HOMO)
       384        0.8236           -0.3562026              -9.6928 (LUMO)
       385        0.2994           -0.3548912              -9.6571
       386        0.0458           -0.3529760              -9.6050
       387        0.0027           -0.3502610              -9.5311
       388        0.0000           -0.3431842              -9.3385
       ...           ...                  ...                  ...
       824                          1.3890113              37.7969
      -------------------------------------------------------------
                  HL-Gap            0.0014469 Eh            0.0394 eV
             Fermi-level           -0.3565413 Eh           -9.7020 eV

 SCC (total)                   0 d,  0 h,  0 min, 24.384 sec
 SCC setup                      ...        0 min,  0.025 sec (  0.101%)
 Dispersion                     ...        0 min,  0.019 sec (  0.077%)
 classical contributions        ...        0 min,  0.006 sec (  0.023%)
 integral evaluation            ...        0 min,  0.521 sec (  2.137%)
 iterations                     ...        0 min, 22.537 sec ( 92.427%)
 molecular gradient             ...        0 min,  1.203 sec (  4.932%)
 printout                       ...        0 min,  0.074 sec (  0.304%)

         :::::::::::::::::::::::::::::::::::::::::::::::::::::
         ::                     SUMMARY                     ::
         :::::::::::::::::::::::::::::::::::::::::::::::::::::
         :: total energy            -412.035020652393 Eh    ::
         :: gradient norm              0.876843062537 Eh/a0 ::
         :: HOMO-LUMO gap              0.039372132166 eV    ::
         ::.................................................::
         :: SCC energy              -418.305312522920 Eh    ::
         :: -> electrostatic           0.368348656588 Eh    ::
         :: repulsion energy           6.488566853843 Eh    ::
         :: dispersion energy         -0.218274983317 Eh    ::
         :: halogen bond corr.         0.000000000000 Eh    ::
         :: add. restraining           0.000000000000 Eh    ::
         :: total charge               0.000000000020 e     ::
         :::::::::::::::::::::::::::::::::::::::::::::::::::::

      ----------------------------------------------------------- 
     |                   =====================                   |
     |                        A N C O P T                        |
     |                   =====================                   |
     |               Approximate Normal Coordinate               |
     |                Rational Function Optimizer                |
      ----------------------------------------------------------- 

          ...................................................
          :                      SETUP                      :
          :.................................................:
          :   optimization level            normal          :
          :   max. optcycles                   726          :
          :   ANC micro-cycles                  20          :
          :   degrees of freedom               720          :
          :.................................................:
          :   RF solver                   davidson          :
          :   write xtbopt.log                true          :
          :   linear?                        false          :
          :   energy convergence         0.5000000E-05 Eh   :
          :   grad. convergence          0.1000000E-02 Eh/α :
          :   maximium RF displ.         1.0000000          :
          :   Hlow (freq-cutoff)         0.1000000E-01      :
          :   Hmax (freq-cutoff)         5.0000000          :
          :   S6 in model hess.         20.0000000          :
          ...................................................

generating ANC from model Hessian ...
Using Lindh-Hessian (1995)
 Shifting diagonal of input Hessian by    1.0016053238262089E-002
 Lowest  eigenvalues of input Hessian
    0.010000    0.010002    0.010007    0.010009    0.010009    0.010010
    0.010011    0.010012    0.000000    0.000000    0.000000    0.000000
    0.000000    0.000000    0.010029    0.010041    0.010044    0.010097
 Highest eigenvalues
    2.256493    2.264443    2.439941    2.540475    2.643298    2.805789


........................................................................
.............................. CYCLE    1 ..............................
........................................................................
   1   -418.3053125 -0.418305E+03  0.837E-05    0.04       0.0  T
   2   -418.3053039  0.862221E-05  0.341E-03    0.04       1.9  T
   3   -418.3053116 -0.769536E-05  0.121E-03    0.04       5.3  T
   4   -418.3053121 -0.449669E-06  0.770E-04    0.04       8.3  T
   5   -418.3053123 -0.196737E-06  0.526E-04    0.04      12.2  T
   6   -418.3053125 -0.242792E-06  0.254E-04    0.04      25.3  T
   7   -418.3053125 -0.252543E-07  0.136E-04    0.04      47.1  T
   8   -418.3053125 -0.115587E-07  0.718E-05    0.04      89.5  T
     SCC iter.                  ...        0 min,  2.625 sec
     gradient                   ...        0 min,  1.212 sec
 * total energy  :  -412.0350207 Eh     change       -0.9748305E-08 Eh
   gradient norm :     0.8768434 Eh/α   predicted     0.0000000E+00 (-100.00%)
   displ. norm   :     0.5672728 α      lambda       -0.4283558E+00
   maximum displ.:     0.1435854 α      in ANC's #492, #475, #501, ...

........................................................................
.............................. CYCLE    2 ..............................
........................................................................
   1   -418.4607980 -0.418461E+03  0.279E-01    0.03       0.0  T
   2   -417.6317342  0.829064E+00  0.879E-01    0.03       1.0  T
   3   -416.5500892  0.108164E+01  0.147E+00    0.02       1.0  T
   4   -417.5038111 -0.953722E+00  0.117E+00    0.01       1.0  T
   5   -417.7915164 -0.287705E+00  0.100E+00    0.02       1.0  T
   6   -418.2611764 -0.469660E+00  0.539E-01    0.12       1.0  T
   7   -418.3270746 -0.658982E-01  0.465E-01    0.10       1.0  T
   8   -418.2706776  0.563970E-01  0.483E-01    0.11       1.0  T
   9   -417.8900273  0.380650E+00  0.909E-01    0.06       1.0  T
  10   -418.3476415 -0.457614E+00  0.418E-01    0.01       1.0  T
  11   -418.3156089  0.320326E-01  0.495E-01    0.07       1.0  T
  12   -418.4851588 -0.169550E+00  0.137E-01    0.03       1.0  T
  13   -418.4382462  0.469127E-01  0.260E-01    0.05       1.0  T
  14   -418.3501987  0.880474E-01  0.478E-01    0.00       1.0  T
  15   -418.4922775 -0.142079E+00  0.801E-02    0.04       1.0  T
  16   -418.4858349  0.644255E-02  0.130E-01    0.06       1.0  T
  17   -418.4891467 -0.331175E-02  0.109E-01    0.04       1.0  T
  18   -418.4952491 -0.610240E-02  0.299E-02    0.04       1.0  T
  19   -418.4960861 -0.837033E-03  0.128E-02    0.04       1.0  T
  20   -418.4948239  0.126219E-02  0.450E-02    0.04       1.0  T
  21   -418.4961226 -0.129865E-02  0.926E-03    0.04       1.0  T
  22   -418.4961607 -0.381484E-04  0.450E-03    0.04       1.4  T
  23   -418.4961698 -0.905590E-05  0.239E-03    0.04       2.7  T
  24   -418.4961654  0.441450E-05  0.358E-03    0.04       1.8  T
  25   -418.4961699 -0.449622E-05  0.226E-03    0.04       2.8  T
  26   -418.4961713 -0.146664E-05  0.157E-03    0.04       4.1  T
  27   -418.4961722 -0.879395E-06  0.965E-04    0.04       6.7  T
  28   -418.4961717  0.496616E-06  0.116E-03    0.04       5.5  T
  29   -418.4961721 -0.415209E-06  0.827E-04    0.04       7.8  T
  30   -418.4961725 -0.434534E-06  0.136E-04    0.04      47.1  T
  31   -418.4961726 -0.524665E-08  0.611E-05    0.04     105.1  T
     SCC iter.                  ...        0 min, 10.117 sec
     gradient                   ...        0 min,  1.212 sec
 * total energy  :  -412.3849410 Eh     change       -0.3499204E+00 Eh
   gradient norm :     0.5396774 Eh/α   predicted    -0.2831380E+00 ( -19.09%)
   displ. norm   :     0.6981058 α      lambda       -0.3396789E+00
   maximum displ.:     0.2015748 α      in ANC's #492, #475, #496, ...

........................................................................
.............................. CYCLE    3 ..............................
........................................................................
   1   -418.7750540 -0.418775E+03  0.269E-01    0.00       0.0  T
   2   -418.3276372  0.447417E+00  0.893E-01    0.20       1.0  T
   3   -417.0589722  0.126867E+01  0.155E+00    0.04       1.0  T
   4   -417.4298462 -0.370874E+00  0.147E+00    0.07       1.0  T
   5   -418.1713848 -0.741539E+00  0.107E+00    0.03       1.0  T
   6   -418.6634735 -0.492089E+00  0.459E-01    0.06       1.0  T
   7   -418.7714283 -0.107955E+00  0.264E-01    0.03       1.0  T
   8   -418.7247889  0.466394E-01  0.277E-01    0.04       1.0  T
   9   -418.6447508  0.800381E-01  0.451E-01    0.04       1.0  T
  10   -418.7836558 -0.138905E+00  0.188E-01    0.03       1.0  T
  11   -418.7987799 -0.151242E-01  0.102E-01    0.00       1.0  T
  12   -418.8027673 -0.398739E-02  0.609E-02    0.02       1.0  T
  13   -418.7852421  0.175252E-01  0.179E-01    0.01       1.0  T
  14   -418.8038287 -0.185866E-01  0.568E-02    0.02       1.0  T
  15   -418.8001227  0.370596E-02  0.947E-02    0.01       1.0  T
  16   -418.8057612 -0.563850E-02  0.127E-02    0.01       1.0  T
  17   -418.8054497  0.311484E-03  0.243E-02    0.01       1.0  T
  18   -418.8058565 -0.406725E-03  0.521E-03    0.01       1.2  T
  19   -418.8058590 -0.253591E-05  0.488E-03    0.01       1.3  T
  20   -418.8058642 -0.519960E-05  0.367E-03    0.01       1.8  T
  21   -418.8058679 -0.374635E-05  0.301E-03    0.01       2.1  T
  22   -418.8058732 -0.525839E-05  0.106E-03    0.01       6.1  T
  23   -418.8058733 -0.830314E-07  0.961E-04    0.01       6.7  T
  24   -418.8058732  0.106525E-06  0.107E-03    0.01       6.0  T
  25   -418.8058736 -0.459465E-06  0.629E-04    0.01      10.2  T
  26   -418.8058738 -0.164502E-06  0.360E-04    0.01      17.9  T
  27   -418.8058739 -0.651837E-07  0.146E-04    0.01      43.9  T
  28   -418.8058739 -0.839151E-08  0.874E-05    0.01      73.6  T
     SCC iter.                  ...        0 min,  9.135 sec
     gradient                   ...        0 min,  1.207 sec
 * total energy  :  -412.6240398 Eh     change       -0.2390988E+00 Eh
   gradient norm :     0.2809491 Eh/α   predicted    -0.2526111E+00 (   5.65%)
   displ. norm   :     0.6868474 α      lambda       -0.1488716E+00
   maximum displ.:     0.1511291 α      in ANC's #492, #243, #233, ...

........................................................................
.............................. CYCLE    4 ..............................
........................................................................
   1   -419.0215320 -0.419022E+03  0.202E-01    0.01       0.0  T
   2   -418.5049257  0.516606E+00  0.847E-01    0.12       1.0  T
   3   -418.1493152  0.355611E+00  0.118E+00    0.14       1.0  T
   4   -418.5290273 -0.379712E+00  0.836E-01    0.02       1.0  T
   5   -418.9181639 -0.389137E+00  0.497E-01    0.04       1.0  T
   6   -418.6787464  0.239417E+00  0.741E-01    0.07       1.0  T
   7   -418.9567561 -0.278010E+00  0.344E-01    0.02       1.0  T
   8   -419.0028527 -0.460966E-01  0.212E-01    0.01       1.0  T
   9   -418.9053546  0.974981E-01  0.433E-01    0.06       1.0  T
  10   -419.0019889 -0.966343E-01  0.246E-01    0.03       1.0  T
  11   -419.0277742 -0.257853E-01  0.136E-01    0.02       1.0  T
  12   -419.0375864 -0.981216E-02  0.660E-02    0.00       1.0  T
  13   -419.0394323 -0.184598E-02  0.395E-02    0.01       1.0  T
  14   -419.0369783  0.245405E-02  0.744E-02    0.01       1.0  T
  15   -419.0396232 -0.264487E-02  0.340E-02    0.01       1.0  T
  16   -419.0401980 -0.574859E-03  0.148E-02    0.01       1.0  T
  17   -419.0399303  0.267711E-03  0.244E-02    0.01       1.0  T
  18   -419.0402379 -0.307619E-03  0.107E-02    0.01       1.0  T
  19   -419.0402772 -0.392736E-04  0.640E-03    0.01       1.0  T
  20   -419.0402944 -0.171732E-04  0.311E-03    0.01       2.1  T
  21   -419.0402990 -0.459846E-05  0.100E-03    0.01       6.4  T
  22   -419.0402992 -0.190855E-06  0.691E-04    0.01       9.3  T
  23   -419.0402994 -0.260252E-06  0.288E-04    0.01      22.3  T
  24   -419.0402995 -0.472423E-07  0.103E-04    0.01      62.7  T
  25   -419.0402995 -0.138243E-08  0.817E-05    0.01      78.7  T
     SCC iter.                  ...        0 min,  8.133 sec
     gradient                   ...        0 min,  1.208 sec
 * total energy  :  -412.7417567 Eh     change       -0.1177169E+00 Eh
   gradient norm :     0.2115887 Eh/α   predicted    -0.1095515E+00 (  -6.94%)
   displ. norm   :     0.7398065 α      lambda       -0.1102953E+00
   maximum displ.:     0.1440888 α      in ANC's #243, #183, #492, ...

........................................................................
.............................. CYCLE    5 ..............................
........................................................................
   1   -419.2055069 -0.419206E+03  0.179E-01    0.01       0.0  T
   2   -418.8312655  0.374241E+00  0.793E-01    0.12       1.0  T
   3   -418.3379587  0.493307E+00  0.117E+00    0.13       1.0  T
   4   -418.9425751 -0.604616E+00  0.604E-01    0.03       1.0  T
   5   -419.1757205 -0.233145E+00  0.260E-01    0.02       1.0  T
   6   -418.9851270  0.190594E+00  0.658E-01    0.02       1.0  T
   7   -419.0675466 -0.824196E-01  0.463E-01    0.05       1.0  T
   8   -419.1652655 -0.977189E-01  0.270E-01    0.03       1.0  T
   9   -419.1870633 -0.217979E-01  0.219E-01    0.03       1.0  T
  10   -419.2130840 -0.260206E-01  0.795E-02    0.02       1.0  T
  11   -419.2153246 -0.224067E-02  0.558E-02    0.01       1.0  T
  12   -419.2165000 -0.117537E-02  0.360E-02    0.01       1.0  T
  13   -419.2155004  0.999616E-03  0.515E-02    0.00       1.0  T
  14   -419.2169186 -0.141826E-02  0.252E-02    0.01       1.0  T
  15   -419.2172610 -0.342381E-03  0.103E-02    0.01       1.0  T
  16   -419.2173039 -0.428422E-04  0.574E-03    0.01       1.1  T
  17   -419.2173218 -0.178915E-04  0.208E-03    0.01       3.1  T
  18   -419.2173230 -0.119529E-05  0.145E-03    0.01       4.4  T
  19   -419.2173237 -0.773366E-06  0.802E-04    0.01       8.0  T
  20   -419.2173240 -0.285737E-06  0.412E-04    0.01      15.6  T
  21   -419.2173241 -0.513713E-07  0.296E-04    0.01      21.7  T
  22   -419.2173241 -0.350833E-07  0.150E-04    0.01      42.8  T
  23   -419.2173241 -0.947841E-08  0.787E-05    0.01      81.7  T
     SCC iter.                  ...        0 min,  7.518 sec
     gradient                   ...        0 min,  1.213 sec
 * total energy  :  -412.8308289 Eh     change       -0.8907227E-01 Eh
   gradient norm :     0.1747631 Eh/α   predicted    -0.8533071E-01 (  -4.20%)
   displ. norm   :     0.7304998 α      lambda       -0.8309430E-01
   maximum displ.:     0.1469636 α      in ANC's #492, #183, #247, ...

........................................................................
.............................. CYCLE    6 ..............................
........................................................................
   1   -419.3150615 -0.419315E+03  0.167E-01    0.01       0.0  T
   2   -419.0046229  0.310439E+00  0.761E-01    0.04       1.0  T
   3   -418.8326416  0.171981E+00  0.857E-01    0.15       1.0  T
   4   -418.7132903  0.119351E+00  0.100E+00    0.07       1.0  T
   5   -419.1639185 -0.450628E+00  0.549E-01    0.02       1.0  T
   6   -419.2734819 -0.109563E+00  0.274E-01    0.03       1.0  T
   7   -419.1978111  0.756708E-01  0.456E-01    0.00       1.0  T
   8   -419.2003869 -0.257584E-02  0.440E-01    0.01       1.0  T
   9   -419.3166621 -0.116275E+00  0.107E-01    0.02       1.0  T
  10   -419.2453808  0.712813E-01  0.351E-01    0.03       1.0  T
  11   -419.3152571 -0.698762E-01  0.113E-01    0.00       1.0  T
  12   -419.3143699  0.887188E-03  0.125E-01    0.02       1.0  T
  13   -419.3245328 -0.101629E-01  0.155E-02    0.01       1.0  T
  14   -419.3246289 -0.960849E-04  0.110E-02    0.01       1.0  T
  15   -419.3246717 -0.427784E-04  0.654E-03    0.01       1.0  T
  16   -419.3246603  0.113314E-04  0.776E-03    0.01       1.0  T
  17   -419.3246798 -0.194642E-04  0.517E-03    0.01       1.2  T
  18   -419.3246951 -0.153355E-04  0.141E-03    0.01       4.6  T
  19   -419.3246948  0.353483E-06  0.161E-03    0.01       4.0  T
  20   -419.3246959 -0.117037E-05  0.825E-04    0.01       7.8  T
  21   -419.3246962 -0.276697E-06  0.464E-04    0.01      13.9  T
  22   -419.3246963 -0.869367E-07  0.257E-04    0.01      25.0  T
  23   -419.3246963  0.693058E-08  0.269E-04    0.01      23.9  T
  24   -419.3246963 -0.416608E-07  0.599E-05    0.01     107.3  T
  25   -419.3246963 -0.127505E-08  0.330E-05    0.01     194.8  T
     SCC iter.                  ...        0 min,  8.155 sec
     gradient                   ...        0 min,  1.214 sec
 * total energy  :  -412.8972426 Eh     change       -0.6641371E-01 Eh
   gradient norm :     0.1384733 Eh/α   predicted    -0.6371797E-01 (  -4.06%)
   displ. norm   :     0.7300112 α      lambda       -0.6256781E-01
   maximum displ.:     0.1453332 α      in ANC's #183, #492, #125, ...

........................................................................
.............................. CYCLE    7 ..............................
........................................................................
   1   -419.3860407 -0.419386E+03  0.156E-01    0.01       0.0  T
   2   -418.7227602  0.663281E+00  0.102E+00    0.07       1.0  T
   3   -418.7663412 -0.435811E-01  0.100E+00    0.19       1.0  T
   4   -418.8827240 -0.116383E+00  0.905E-01    0.15       1.0  T
   5   -418.4325004  0.450224E+00  0.125E+00    0.15       1.0  T
   6   -419.3682881 -0.935788E+00  0.212E-01    0.01       1.0  T
   7   -419.3405430  0.277451E-01  0.276E-01    0.04       1.0  T
   8   -419.3826090 -0.420660E-01  0.145E-01    0.01       1.0  T
   9   -419.3715058  0.111032E-01  0.194E-01    0.02       1.0  T
  10   -419.3678712  0.363455E-02  0.206E-01    0.04       1.0  T
  11   -419.3856884 -0.178171E-01  0.126E-01    0.02       1.0  T
  12   -419.3909005 -0.521209E-02  0.838E-02    0.02       1.0  T
  13   -419.3921309 -0.123046E-02  0.762E-02    0.00       1.0  T
  14   -419.3956527 -0.352176E-02  0.148E-02    0.01       1.0  T
  15   -419.3957269 -0.742516E-04  0.985E-03    0.01       1.0  T
  16   -419.3957488 -0.218587E-04  0.787E-03    0.01       1.0  T
  17   -419.3957720 -0.232561E-04  0.446E-03    0.01       1.4  T
  18   -419.3957809 -0.881671E-05  0.251E-03    0.01       2.6  T
  19   -419.3957815 -0.684571E-06  0.222E-03    0.01       2.9  T
  20   -419.3957840 -0.246741E-05  0.953E-04    0.01       6.7  T
  21   -419.3957846 -0.559331E-06  0.186E-04    0.01      34.5  T
  22   -419.3957846  0.131806E-07  0.235E-04    0.01      27.4  T
  23   -419.3957846 -0.300657E-07  0.726E-05    0.01      88.6  T
     SCC iter.                  ...        0 min,  7.500 sec
     gradient                   ...        0 min,  1.218 sec
 * total energy  :  -412.9473754 Eh     change       -0.5013276E-01 Eh
   gradient norm :     0.1090846 Eh/α   predicted    -0.4795564E-01 (  -4.34%)
   displ. norm   :     0.7349177 α      lambda       -0.4767081E-01
   maximum displ.:     0.1461383 α      in ANC's #125, #131, #126, ...

........................................................................
.............................. CYCLE    8 ..............................
........................................................................
   1   -419.4213435 -0.419421E+03  0.206E-01    0.01       0.0  T
   2   -418.8222287  0.599115E+00  0.102E+00    0.12       1.0  T
   3   -418.6423837  0.179845E+00  0.107E+00    0.09       1.0  T
   4   -419.1079964 -0.465613E+00  0.737E-01    0.05       1.0  T
   5   -419.2432128 -0.135216E+00  0.502E-01    0.05       1.0  T
   6   -419.2085714  0.346414E-01  0.594E-01    0.02       1.0  T
   7   -419.1796927  0.288786E-01  0.604E-01    0.04       1.0  T
   8   -419.4017767 -0.222084E+00  0.261E-01    0.00       1.0  T
   9   -419.4324325 -0.306558E-01  0.115E-01    0.01       1.0  T
  10   -419.4351397 -0.270717E-02  0.103E-01    0.00       1.0  T
  11   -419.4241087  0.110309E-01  0.168E-01    0.01       1.0  T
  12   -419.4369960 -0.128872E-01  0.765E-02    0.02       1.0  T
  13   -419.4344849  0.251104E-02  0.105E-01    0.01       1.0  T
  14   -419.4393894 -0.490443E-02  0.497E-02    0.01       1.0  T
  15   -419.4399452 -0.555795E-03  0.415E-02    0.00       1.0  T
  16   -419.4408537 -0.908567E-03  0.181E-02    0.01       1.0  T
  17   -419.4409647 -0.110938E-03  0.114E-02    0.01       1.0  T
  18   -419.4409098  0.548705E-04  0.148E-02    0.01       1.0  T
  19   -419.4410400 -0.130254E-03  0.361E-03    0.01       1.8  T
  20   -419.4410402 -0.109891E-06  0.341E-03    0.01       1.9  T
  21   -419.4410477 -0.753484E-05  0.313E-04    0.01      20.6  T
  22   -419.4410473  0.362194E-06  0.817E-04    0.01       7.9  T
  23   -419.4410477 -0.401240E-06  0.120E-04    0.01      53.6  T
  24   -419.4410477  0.410421E-08  0.146E-04    0.01      44.1  T
     SCC iter.                  ...        0 min,  7.794 sec
     gradient                   ...        0 min,  1.215 sec
 * total energy  :  -412.9863250 Eh     change       -0.3894962E-01 Eh
   gradient norm :     0.0887734 Eh/α   predicted    -0.3670901E-01 (  -5.75%)
   displ. norm   :     0.7632766 α      lambda       -0.3842299E-01
   maximum displ.:     0.1743404 α      in ANC's #131, #126, #67, ...

........................................................................
.............................. CYCLE    9 ..............................
........................................................................
   1   -419.4472550 -0.419447E+03  0.347E-01    0.00       0.0  T
   2   -416.8464717  0.260078E+01  0.206E+00    0.02       1.0  T
   3   -417.5930108 -0.746539E+00  0.165E+00    0.02       1.0  T
   4   -419.0190319 -0.142602E+01  0.967E-01    0.12       1.0  T
   5   -419.2225047 -0.203473E+00  0.645E-01    0.07       1.0  T
   6   -419.4133458 -0.190841E+00  0.381E-01    0.04       1.0  T
   7   -419.4313434 -0.179976E-01  0.303E-01    0.00       1.0  T
   8   -419.4424387 -0.110953E-01  0.326E-01    0.00       1.0  T
   9   -419.3638305  0.786083E-01  0.458E-01    0.04       1.0  T
  10   -419.4540120 -0.901815E-01  0.282E-01    0.03       1.0  T
  11   -419.4593988 -0.538682E-02  0.243E-01    0.02       1.0  T
  12   -419.4924473 -0.330485E-01  0.112E-01    0.00       1.0  T
  13   -419.4759782  0.164691E-01  0.192E-01    0.01       1.0  T
  14   -419.4991058 -0.231276E-01  0.598E-02    0.02       1.0  T
  15   -419.4961574  0.294841E-02  0.909E-02    0.01       1.0  T
  16   -419.5004682 -0.431080E-02  0.318E-02    0.01       1.0  T
  17   -419.4997978  0.670402E-03  0.444E-02    0.00       1.0  T
  18   -419.5010080 -0.121027E-02  0.105E-02    0.01       1.0  T
  19   -419.5010493 -0.412756E-04  0.644E-03    0.01       1.0  T
  20   -419.5010575 -0.820913E-05  0.532E-03    0.01       1.2  T
  21   -419.5010635 -0.597099E-05  0.423E-03    0.01       1.5  T
  22   -419.5010703 -0.682974E-05  0.261E-03    0.01       2.5  T
  23   -419.5010736 -0.329662E-05  0.134E-03    0.01       4.8  T
  24   -419.5010742 -0.558287E-06  0.970E-04    0.01       6.6  T
  25   -419.5010747 -0.542182E-06  0.273E-04    0.01      23.5  T
  26   -419.5010747 -0.243619E-07  0.191E-04    0.01      33.6  T
  27   -419.5010747 -0.210659E-07  0.498E-05    0.01     129.1  T
     SCC iter.                  ...        0 min,  8.712 sec
     gradient                   ...        0 min,  1.212 sec
 * total energy  :  -413.0182829 Eh     change       -0.3195786E-01 Eh
   gradient norm :     0.0802837 Eh/α   predicted    -0.3040396E-01 (  -4.86%)
   displ. norm   :     0.7985856 α      lambda       -0.3532317E-01
   maximum displ.:     0.1848265 α      in ANC's #125, #131, #53, ...

........................................................................
.............................. CYCLE   10 ..............................
........................................................................
   1   -419.3638787 -0.419364E+03  0.547E-01    0.02       0.0  T
   2   -402.1291296  0.172347E+02  0.468E+00    0.15       1.0  T
   3   -416.2851145 -0.141560E+02  0.227E+00    0.03       1.0  T
   4   -418.7766548 -0.249154E+01  0.122E+00    0.07       1.0  T
   5   -419.0992581 -0.322603E+00  0.844E-01    0.06       1.0  T
   6   -419.1274164 -0.281583E-01  0.707E-01    0.04       1.0  T
   7   -419.2258978 -0.984814E-01  0.635E-01    0.07       1.0  T
   8   -419.0079703  0.217928E+00  0.853E-01    0.07       1.0  T
   9   -418.5700053  0.437965E+00  0.119E+00    0.05       1.0  T
  10   -419.3238710 -0.753866E+00  0.539E-01    0.00       1.0  T
  11   -419.4780388 -0.154168E+00  0.223E-01    0.01       1.0  T
  12   -419.4257857  0.522531E-01  0.373E-01    0.02       1.0  T
  13   -419.3806245  0.451612E-01  0.443E-01    0.00       1.0  T
  14   -419.4146807 -0.340562E-01  0.385E-01    0.01       1.0  T
  15   -419.4923660 -0.776853E-01  0.186E-01    0.00       1.0  T
  16   -419.5030994 -0.107334E-01  0.140E-01    0.02       1.0  T
  17   -419.5126378 -0.953835E-02  0.479E-02    0.01       1.0  T
  18   -419.5127534 -0.115656E-03  0.449E-02    0.01       1.0  T
  19   -419.5132706 -0.517221E-03  0.366E-02    0.01       1.0  T
  20   -419.5140352 -0.764548E-03  0.926E-03    0.01       1.0  T
  21   -419.5139607  0.744698E-04  0.139E-02    0.01       1.0  T
  22   -419.5140708 -0.110074E-03  0.503E-03    0.01       1.3  T
  23   -419.5140345  0.363151E-04  0.870E-03    0.01       1.0  T
  24   -419.5140688 -0.342910E-04  0.492E-03    0.01       1.3  T
  25   -419.5140795 -0.107907E-04  0.297E-03    0.01       2.2  T
  26   -419.5140845 -0.491770E-05  0.127E-03    0.01       5.1  T
  27   -419.5140853 -0.835844E-06  0.580E-04    0.01      11.1  T
  28   -419.5140855 -0.157938E-06  0.303E-04    0.01      21.2  T
  29   -419.5140855 -0.518835E-07  0.124E-04    0.01      51.6  T
  30   -419.5140855 -0.130774E-08  0.107E-04    0.01      59.9  T
     SCC iter.                  ...        0 min,  9.688 sec
     gradient                   ...        0 min,  1.213 sec
 * total energy  :  -413.0467377 Eh     change       -0.2845482E-01 Eh
   gradient norm :     0.1029176 Eh/α   predicted    -0.2892507E-01 (   1.65%)
   displ. norm   :     0.7791109 α      lambda       -0.3457337E-01
   maximum displ.:     0.1705606 α      in ANC's #131, #67, #110, ...

........................................................................
.............................. CYCLE   11 ..............................
........................................................................
   1   -419.3795007 -0.419380E+03  0.627E-01    0.02       0.0  T
   2   -399.9401522  0.194393E+02  0.470E+00    0.08       1.0  T
   3   -416.2361331 -0.162960E+02  0.235E+00    0.02       1.0  T
   4   -418.7226891 -0.248656E+01  0.130E+00    0.09       1.0  T
   5   -419.0928178 -0.370129E+00  0.914E-01    0.01       1.0  T
   6   -419.0606766  0.321413E-01  0.845E-01    0.06       1.0  T
   7   -418.9926835  0.679931E-01  0.892E-01    0.13       1.0  T
   8   -419.1683802 -0.175697E+00  0.826E-01    0.04       1.0  T
   9   -419.0474310  0.120949E+00  0.864E-01    0.01       1.0  T
  10   -419.3534940 -0.306063E+00  0.581E-01    0.00       1.0  T
  11   -419.4807268 -0.127233E+00  0.394E-01    0.00       1.0  T
  12   -419.4391168  0.416100E-01  0.455E-01    0.02       1.0  T
  13   -419.4477716 -0.865480E-02  0.457E-01    0.04       1.0  T
  14   -419.4685139 -0.207423E-01  0.421E-01    0.02       1.0  T
  15   -419.5515495 -0.830356E-01  0.252E-01    0.01       1.0  T
  16   -419.5773999 -0.258504E-01  0.138E-01    0.01       1.0  T
  17   -419.5866517 -0.925176E-02  0.679E-02    0.01       1.0  T
  18   -419.5883082 -0.165655E-02  0.492E-02    0.00       1.0  T
  19   -419.5885760 -0.267746E-03  0.440E-02    0.00       1.0  T
  20   -419.5895829 -0.100695E-02  0.208E-02    0.01       1.0  T
  21   -419.5897429 -0.159973E-03  0.123E-02    0.01       1.0  T
  22   -419.5897503 -0.744543E-05  0.123E-02    0.01       1.0  T
  23   -419.5898036 -0.532624E-04  0.749E-03    0.01       1.0  T
  24   -419.5898245 -0.208803E-04  0.463E-03    0.01       1.4  T
  25   -419.5898325 -0.804285E-05  0.285E-03    0.01       2.3  T
  26   -419.5898362 -0.368115E-05  0.154E-03    0.01       4.2  T
  27   -419.5898371 -0.869306E-06  0.966E-04    0.01       6.7  T
  28   -419.5898375 -0.430999E-06  0.523E-04    0.01      12.3  T
  29   -419.5898376 -0.133294E-06  0.279E-04    0.01      23.1  T
  30   -419.5898377 -0.457931E-07  0.770E-05    0.01      83.5  T
  31   -419.5898377 -0.325053E-08  0.245E-05    0.01     262.7  T
     SCC iter.                  ...        0 min, 10.025 sec
     gradient                   ...        0 min,  1.213 sec
 * total energy  :  -413.0768118 Eh     change       -0.3007407E-01 Eh
   gradient norm :     0.0921335 Eh/α   predicted    -0.2777999E-01 (  -7.63%)
   displ. norm   :     0.8040350 α      lambda       -0.3899312E-01
   maximum displ.:     0.1482327 α      in ANC's #538, #53, #65, ...

........................................................................
.............................. CYCLE   12 ..............................
........................................................................
   1   -419.4361244 -0.419436E+03  0.634E-01    0.03       0.0  T
   2   -400.2598430  0.191763E+02  0.485E+00    0.19       1.0  T
   3   -416.5625341 -0.163027E+02  0.226E+00    0.01       1.0  T
   4   -418.7221237 -0.215959E+01  0.128E+00    0.01       1.0  T
   5   -418.9484607 -0.226337E+00  0.103E+00    0.06       1.0  T
   6   -419.2946432 -0.346183E+00  0.878E-01    0.03       1.0  T
   7   -418.8468489  0.447794E+00  0.104E+00    0.11       1.0  T
   8   -419.2548693 -0.408020E+00  0.822E-01    0.03       1.0  T
   9   -418.9807019  0.274167E+00  0.101E+00    0.02       1.0  T
  10   -418.7969186  0.183783E+00  0.111E+00    0.03       1.0  T
  11   -419.2742601 -0.477341E+00  0.792E-01    0.01       1.0  T
  12   -419.3921426 -0.117883E+00  0.634E-01    0.02       1.0  T
  13   -419.4903459 -0.982032E-01  0.546E-01    0.04       1.0  T
  14   -419.5963020 -0.105956E+00  0.298E-01    0.01       1.0  T
  15   -419.5422119  0.540901E-01  0.445E-01    0.01       1.0  T
  16   -419.4827564  0.594555E-01  0.528E-01    0.03       1.0  T
  17   -419.5447417 -0.619853E-01  0.448E-01    0.00       1.0  T
  18   -419.6407100 -0.959683E-01  0.203E-01    0.01       1.0  T
  19   -419.6360941  0.461589E-02  0.220E-01    0.01       1.0  T
  20   -419.6488352 -0.127411E-01  0.140E-01    0.01       1.0  T
  21   -419.6642555 -0.154203E-01  0.196E-02    0.01       1.0  T
  22   -419.6567332  0.752224E-02  0.112E-01    0.00       1.0  T
  23   -419.6598719 -0.313865E-02  0.890E-02    0.01       1.0  T
  24   -419.6643104 -0.443857E-02  0.216E-02    0.01       1.0  T
  25   -419.6642475  0.628965E-04  0.234E-02    0.01       1.0  T
  26   -419.6644669 -0.219365E-03  0.142E-02    0.01       1.0  T
  27   -419.6645324 -0.655168E-04  0.995E-03    0.01       1.0  T
  28   -419.6645777 -0.452633E-04  0.453E-03    0.01       1.4  T
  29   -419.6645876 -0.993352E-05  0.198E-03    0.01       3.2  T
  30   -419.6645871  0.472588E-06  0.225E-03    0.01       2.9  T
  31   -419.6645894 -0.221319E-05  0.138E-03    0.01       4.6  T
  32   -419.6645903 -0.921337E-06  0.676E-04    0.01       9.5  T
  33   -419.6645905 -0.265353E-06  0.186E-04    0.01      34.5  T
  34   -419.6645905 -0.185759E-08  0.179E-04    0.01      36.0  T
     SCC iter.                  ...        0 min, 10.915 sec
     gradient                   ...        0 min,  1.208 sec
 * total energy  :  -413.1128406 Eh     change       -0.3602880E-01 Eh
   gradient norm :     0.1187679 Eh/α   predicted    -0.3210056E-01 ( -10.90%)
   displ. norm   :     0.8360437 α      lambda       -0.5162457E-01
   maximum displ.:     0.2011958 α      in ANC's #538, #459, #561, ...

........................................................................
.............................. CYCLE   13 ..............................
........................................................................
   1   -419.5229922 -0.419523E+03  0.628E-01    0.04       0.0  T
   2   -383.7009472  0.358220E+02  0.670E+00    0.12       1.0  T
   3   -418.6386180 -0.349377E+02  0.144E+00    0.02       1.0  T
   4   -419.0966457 -0.458028E+00  0.103E+00    0.02       1.0  T
   5   -419.0566087  0.400369E-01  0.112E+00    0.09       1.0  T
   6   -419.0442184  0.123903E-01  0.107E+00    0.11       1.0  T
   7   -419.1074816 -0.632632E-01  0.932E-01    0.03       1.0  T
   8   -419.2483315 -0.140850E+00  0.818E-01    0.09       1.0  T
   9   -419.3024453 -0.541138E-01  0.854E-01    0.03       1.0  T
  10   -418.9433086  0.359137E+00  0.111E+00    0.01       1.0  T
  11   -419.3505787 -0.407270E+00  0.780E-01    0.00       1.0  T
  12   -419.5731183 -0.222540E+00  0.470E-01    0.01       1.0  T
  13   -419.5396768  0.334415E-01  0.561E-01    0.01       1.0  T
  14   -419.6011559 -0.614791E-01  0.498E-01    0.00       1.0  T
  15   -419.6392884 -0.381325E-01  0.422E-01    0.00       1.0  T
  16   -419.6869912 -0.477028E-01  0.306E-01    0.01       1.0  T
  17   -419.7470484 -0.600572E-01  0.104E-01    0.00       1.0  T
  18   -419.7241790  0.228694E-01  0.212E-01    0.01       1.0  T
  19   -419.7513977 -0.272187E-01  0.432E-02    0.01       1.0  T
  20   -419.7483229  0.307477E-02  0.833E-02    0.00       1.0  T
  21   -419.7525037 -0.418077E-02  0.195E-02    0.00       1.0  T
  22   -419.7501922  0.231143E-02  0.617E-02    0.00       1.0  T
  23   -419.7512928 -0.110061E-02  0.455E-02    0.00       1.0  T
  24   -419.7511999  0.929863E-04  0.481E-02    0.00       1.0  T
  25   -419.7526498 -0.144996E-02  0.844E-03    0.00       1.0  T
  26   -419.7525742  0.755766E-04  0.140E-02    0.00       1.0  T
  27   -419.7526291 -0.548140E-04  0.102E-02    0.00       1.0  T
  28   -419.7526723 -0.432453E-04  0.640E-03    0.00       1.0  T
  29   -419.7526912 -0.189458E-04  0.346E-03    0.00       1.9  T
  30   -419.7526973 -0.600878E-05  0.198E-03    0.00       3.2  T
  31   -419.7526977 -0.458453E-06  0.176E-03    0.00       3.6  T
  32   -419.7526994 -0.165330E-05  0.845E-04    0.00       7.6  T
  33   -419.7526995 -0.164941E-06  0.694E-04    0.00       9.3  T
  34   -419.7526998 -0.277248E-06  0.219E-04    0.00      29.4  T
  35   -419.7526998 -0.181334E-07  0.135E-04    0.00      47.5  T
  36   -419.7526998 -0.123279E-07  0.263E-05    0.00     244.7  T
     SCC iter.                  ...        0 min, 11.580 sec
     gradient                   ...        0 min,  1.212 sec
 * total energy  :  -413.1524315 Eh     change       -0.3959097E-01 Eh
   gradient norm :     0.1422853 Eh/α   predicted    -0.4385425E-01 (  10.77%)
   displ. norm   :     0.7192734 α      lambda       -0.3984537E-01
   maximum displ.:     0.1772860 α      in ANC's #53, #126, #67, ...

........................................................................
.............................. CYCLE   14 ..............................
........................................................................
   1   -419.4720674 -0.419472E+03  0.635E-01    0.05       0.0  T
   2   -382.2117555  0.372603E+02  0.683E+00    0.46       1.0  T
   3   -418.6068673 -0.363951E+02  0.140E+00    0.02       1.0  T
   4   -419.1215582 -0.514691E+00  0.854E-01    0.05       1.0  T
   5   -419.1182748  0.328342E-02  0.876E-01    0.06       1.0  T
   6   -417.2401871  0.187809E+01  0.197E+00    0.00       1.0  T
   7   -418.8429493 -0.160276E+01  0.118E+00    0.18       1.0  T
   8   -419.2214475 -0.378498E+00  0.884E-01    0.06       1.0  T
   9   -419.5311638 -0.309716E+00  0.532E-01    0.00       1.0  T
  10   -419.4023236  0.128840E+00  0.703E-01    0.06       1.0  T
  11   -419.3889419  0.133817E-01  0.676E-01    0.05       1.0  T
  12   -419.6002730 -0.211331E+00  0.396E-01    0.01       1.0  T
  13   -419.6555363 -0.552633E-01  0.314E-01    0.00       1.0  T
  14   -419.5790006  0.765357E-01  0.455E-01    0.02       1.0  T
  15   -419.5802426 -0.124199E-02  0.453E-01    0.02       1.0  T
  16   -419.5658039  0.144387E-01  0.482E-01    0.01       1.0  T
  17   -419.5961306 -0.303267E-01  0.420E-01    0.01       1.0  T
  18   -419.7092102 -0.113080E+00  0.439E-02    0.00       1.0  T
  19   -419.6516566  0.575536E-01  0.309E-01    0.02       1.0  T
  20   -419.7066747 -0.550181E-01  0.766E-02    0.01       1.0  T
  21   -419.7083689 -0.169425E-02  0.574E-02    0.00       1.0  T
  22   -419.7099476 -0.157869E-02  0.307E-02    0.00       1.0  T
  23   -419.7102292 -0.281646E-03  0.209E-02    0.00       1.0  T
  24   -419.7104691 -0.239902E-03  0.618E-03    0.00       1.0  T
  25   -419.7104712 -0.206642E-05  0.614E-03    0.00       1.0  T
  26   -419.7104952 -0.239852E-04  0.946E-04    0.00       6.8  T
  27   -419.7104946  0.594114E-06  0.136E-03    0.00       4.7  T
  28   -419.7104957 -0.105364E-05  0.545E-04    0.00      11.8  T
  29   -419.7104955  0.122550E-06  0.700E-04    0.00       9.2  T
  30   -419.7104956 -0.570665E-07  0.620E-04    0.00      10.4  T
  31   -419.7104958 -0.182523E-06  0.406E-04    0.00      15.8  T
  32   -419.7104958  0.217128E-07  0.432E-04    0.00      14.9  T
  33   -419.7104958 -0.750129E-07  0.278E-04    0.00      23.1  T
  34   -419.7104959 -0.250108E-07  0.203E-04    0.00      31.6  T
  35   -419.7104959 -0.164406E-07  0.137E-04    0.00      47.0  T
  36   -419.7104959 -0.107822E-07  0.484E-05    0.00     132.9  T
     SCC iter.                  ...        0 min, 11.628 sec
     gradient                   ...        0 min,  1.217 sec
 * total energy  :  -413.1782481 Eh     change       -0.2581660E-01 Eh
   gradient norm :     0.1557078 Eh/α   predicted    -0.3022975E-01 (  17.09%)
   displ. norm   :     0.6058999 α      lambda       -0.3775393E-01
   maximum displ.:     0.1728030 α      in ANC's #159, #67, #48, ...

........................................................................
.............................. CYCLE   15 ..............................
........................................................................
   1   -419.7282631 -0.419728E+03  0.254E-01    0.00       0.0  T
   2   -413.1080433  0.662022E+01  0.303E+00    0.00       1.0  T
   3   -416.8923456 -0.378430E+01  0.213E+00    0.01       1.0  T
   4   -418.3935765 -0.150123E+01  0.146E+00    0.03       1.0  T
   5   -419.1282990 -0.734722E+00  0.904E-01    0.03       1.0  T
   6   -419.5076176 -0.379319E+00  0.642E-01    0.04       1.0  T
   7   -419.4118215  0.957960E-01  0.736E-01    0.02       1.0  T
   8   -419.3716043  0.402172E-01  0.834E-01    0.03       1.0  T
   9   -419.2663762  0.105228E+00  0.855E-01    0.03       1.0  T
  10   -419.7693871 -0.503011E+00  0.615E-02    0.00       1.0  T
  11   -419.7323648  0.370223E-01  0.241E-01    0.03       1.0  T
  12   -419.7617538 -0.293891E-01  0.124E-01    0.01       1.0  T
  13   -419.7552941  0.645971E-02  0.161E-01    0.01       1.0  T
  14   -419.7569772 -0.168310E-02  0.147E-01    0.01       1.0  T
  15   -419.7707908 -0.138136E-01  0.294E-02    0.00       1.0  T
  16   -419.7675556  0.323524E-02  0.742E-02    0.01       1.0  T
  17   -419.7712102 -0.365456E-02  0.153E-02    0.00       1.0  T
  18   -419.7705738  0.636348E-03  0.347E-02    0.00       1.0  T
  19   -419.7712875 -0.713671E-03  0.993E-03    0.00       1.0  T
  20   -419.7713327 -0.451903E-04  0.540E-03    0.00       1.2  T
  21   -419.7713182  0.145159E-04  0.710E-03    0.00       1.0  T
  22   -419.7713360 -0.178077E-04  0.491E-03    0.00       1.3  T
  23   -419.7713488 -0.128080E-04  0.216E-03    0.00       3.0  T
  24   -419.7713503 -0.154775E-05  0.153E-03    0.00       4.2  T
  25   -419.7713510 -0.657939E-06  0.114E-03    0.00       5.7  T
  26   -419.7713516 -0.633491E-06  0.549E-04    0.00      11.7  T
  27   -419.7713518 -0.129491E-06  0.341E-04    0.00      18.9  T
  28   -419.7713518 -0.515154E-07  0.194E-04    0.00      33.2  T
  29   -419.7713518 -0.145236E-07  0.121E-04    0.00      53.2  T
     SCC iter.                  ...        0 min,  9.357 sec
     gradient                   ...        0 min,  1.188 sec
 * total energy  :  -413.1998092 Eh     change       -0.2156112E-01 Eh
   gradient norm :     0.1448787 Eh/α   predicted    -0.2580698E-01 (  19.69%)
   displ. norm   :     0.6044481 α      lambda       -0.3317645E-01
   maximum displ.:     0.1567264 α      in ANC's #48, #52, #39, ...

........................................................................
.............................. CYCLE   16 ..............................
........................................................................
   1   -419.7244148 -0.419724E+03  0.178E-01    0.00       0.0  T
   2   -416.1725251  0.355189E+01  0.242E+00    0.08       1.0  T
   3   -418.9369349 -0.276441E+01  0.102E+00    0.04       1.0  T
   4   -419.1275900 -0.190655E+00  0.984E-01    0.10       1.0  T
   5   -419.3119275 -0.184338E+00  0.812E-01    0.04       1.0  T
   6   -419.6976563 -0.385729E+00  0.283E-01    0.02       1.0  T
   7   -419.5164786  0.181178E+00  0.568E-01    0.04       1.0  T
   8   -419.7267344 -0.210256E+00  0.148E-01    0.02       1.0  T
   9   -419.5360017  0.190733E+00  0.531E-01    0.04       1.0  T
  10   -419.7344333 -0.198432E+00  0.126E-01    0.00       1.0  T
  11   -419.6253246  0.109109E+00  0.415E-01    0.03       1.0  T
  12   -419.6991699 -0.738453E-01  0.253E-01    0.01       1.0  T
  13   -419.7244891 -0.253192E-01  0.168E-01    0.02       1.0  T
  14   -419.7224343  0.205477E-02  0.184E-01    0.01       1.0  T
  15   -419.7441378 -0.217034E-01  0.370E-02    0.00       1.0  T
  16   -419.7436230  0.514772E-03  0.462E-02    0.00       1.0  T
  17   -419.7449245 -0.130152E-02  0.391E-03    0.00       1.6  T
  18   -419.7448648  0.597264E-04  0.107E-02    0.00       1.0  T
  19   -419.7449200 -0.551776E-04  0.484E-03    0.00       1.3  T
  20   -419.7449309 -0.108997E-04  0.250E-03    0.00       2.6  T
  21   -419.7449336 -0.271231E-05  0.139E-03    0.00       4.6  T
  22   -419.7449336  0.289332E-07  0.142E-03    0.00       4.5  T
  23   -419.7449331  0.494080E-06  0.165E-03    0.00       3.9  T
  24   -419.7449337 -0.675530E-06  0.127E-03    0.00       5.1  T
  25   -419.7449348 -0.104133E-05  0.323E-04    0.00      19.9  T
  26   -419.7449348 -0.749060E-08  0.317E-04    0.00      20.3  T
  27   -419.7449348 -0.412264E-07  0.197E-04    0.00      32.7  T
  28   -419.7449348 -0.257661E-07  0.107E-05    0.00     599.6  T
     SCC iter.                  ...        0 min,  9.030 sec
     gradient                   ...        0 min,  1.181 sec
 * total energy  :  -413.2137133 Eh     change       -0.1390404E-01 Eh
   gradient norm :     0.1414022 Eh/α   predicted    -0.2264885E-01 (  62.89%)
   displ. norm   :     0.6053072 α      lambda       -0.2989085E-01
   maximum displ.:     0.1712375 α      in ANC's #48, #67, #66, ...

........................................................................
.............................. CYCLE   17 ..............................
........................................................................
   1   -419.7617451 -0.419762E+03  0.228E-01    0.02       0.0  T
   2   -418.4788436  0.128290E+01  0.148E+00    0.19       1.0  T
   3   -419.3565287 -0.877685E+00  0.843E-01    0.02       1.0  T
   4   -419.3362468  0.202819E-01  0.811E-01    0.00       1.0  T
   5   -419.4454273 -0.109180E+00  0.742E-01    0.00       1.0  T
   6   -419.6208533 -0.175426E+00  0.520E-01    0.03       1.0  T
   7   -419.5967391  0.241142E-01  0.550E-01    0.01       1.0  T
   8   -419.7130940 -0.116355E+00  0.327E-01    0.02       1.0  T
   9   -419.5962775  0.116817E+00  0.543E-01    0.01       1.0  T
  10   -419.6973981 -0.101121E+00  0.377E-01    0.01       1.0  T
  11   -419.7185277 -0.211296E-01  0.339E-01    0.01       1.0  T
  12   -419.7754818 -0.569541E-01  0.159E-01    0.01       1.0  T
  13   -419.7860909 -0.106091E-01  0.941E-02    0.01       1.0  T
  14   -419.7870886 -0.997725E-03  0.885E-02    0.01       1.0  T
  15   -419.7921805 -0.509184E-02  0.164E-02    0.00       1.0  T
  16   -419.7905996  0.158090E-02  0.524E-02    0.00       1.0  T
  17   -419.7923449 -0.174534E-02  0.720E-03    0.00       1.0  T
  18   -419.7923256  0.192792E-04  0.861E-03    0.00       1.0  T
  19   -419.7923593 -0.336705E-04  0.558E-03    0.00       1.2  T
  20   -419.7923785 -0.191894E-04  0.454E-04    0.00      14.1  T
  21   -419.7923784  0.140105E-06  0.697E-04    0.00       9.2  T
  22   -419.7923786 -0.292240E-06  0.137E-04    0.00      47.0  T
  23   -419.7923786  0.128807E-07  0.191E-04    0.00      33.7  T
     SCC iter.                  ...        0 min,  7.322 sec
     gradient                   ...        0 min,  1.148 sec
 * total energy  :  -413.2273913 Eh     change       -0.1367800E-01 Eh
   gradient norm :     0.1190029 Eh/α   predicted    -0.2042139E-01 (  49.30%)
   displ. norm   :     0.5853250 α      lambda       -0.2445198E-01
   maximum displ.:     0.2193838 α      in ANC's #53, #125, #66, ...

........................................................................
.............................. CYCLE   18 ..............................
........................................................................
   1   -419.7946349 -0.419795E+03  0.302E-01    0.02       0.0  T
   2   -415.7334578  0.406118E+01  0.247E+00    0.01       1.0  T
   3   -419.5319973 -0.379854E+01  0.749E-01    0.01       1.0  T
   4   -419.3642054  0.167792E+00  0.805E-01    0.08       1.0  T
   5   -419.6157917 -0.251586E+00  0.616E-01    0.04       1.0  T
   6   -419.3646449  0.251147E+00  0.915E-01    0.08       1.0  T
   7   -419.5077792 -0.143134E+00  0.702E-01    0.05       1.0  T
   8   -419.7251399 -0.217361E+00  0.393E-01    0.02       1.0  T
   9   -419.3435987  0.381541E+00  0.922E-01    0.11       1.0  T
  10   -419.6234393 -0.279841E+00  0.593E-01    0.06       1.0  T
  11   -419.8362588 -0.212819E+00  0.134E-01    0.01       1.0  T
  12   -419.7787046  0.575542E-01  0.319E-01    0.00       1.0  T
  13   -419.8190564 -0.403518E-01  0.198E-01    0.00       1.0  T
  14   -419.8396790 -0.206225E-01  0.112E-01    0.01       1.0  T
  15   -419.8408667 -0.118775E-02  0.980E-02    0.01       1.0  T
  16   -419.8461071 -0.524039E-02  0.422E-02    0.00       1.0  T
  17   -419.8468775 -0.770434E-03  0.267E-02    0.00       1.0  T
  18   -419.8473083 -0.430769E-03  0.454E-03    0.00       1.4  T
  19   -419.8472954  0.129066E-04  0.623E-03    0.00       1.0  T
  20   -419.8472994 -0.400348E-05  0.588E-03    0.00       1.1  T
  21   -419.8473167 -0.173305E-04  0.275E-03    0.00       2.3  T
  22   -419.8473194 -0.270787E-05  0.180E-03    0.00       3.6  T
  23   -419.8473213 -0.184940E-05  0.353E-04    0.00      18.2  T
  24   -419.8473213 -0.518201E-07  0.264E-04    0.00      24.4  T
  25   -419.8473214 -0.468375E-07  0.487E-05    0.00     131.9  T
  26   -419.8473214  0.811445E-08  0.125E-04    0.00      51.6  T
     SCC iter.                  ...        0 min,  8.150 sec
     gradient                   ...        0 min,  1.148 sec
 * total energy  :  -413.2367487 Eh     change       -0.9357436E-02 Eh
   gradient norm :     0.1611670 Eh/α   predicted    -0.1641469E-01 (  75.42%)
   displ. norm   :     0.5075294 α      lambda       -0.2140760E-01
   maximum displ.:     0.1404086 α      in ANC's #18, #32, #67, ...

........................................................................
.............................. CYCLE   19 ..............................
........................................................................
   1   -419.8439381 -0.419844E+03  0.107E-01    0.00       0.0  T
   2   -418.9101077  0.933830E+00  0.122E+00    0.22       1.0  T
   3   -418.4402524  0.469855E+00  0.146E+00    0.06       1.0  T
   4   -419.7151363 -0.127488E+01  0.438E-01    0.00       1.0  T
   5   -419.6694241  0.457122E-01  0.519E-01    0.04       1.0  T
   6   -419.8077149 -0.138291E+00  0.260E-01    0.03       1.0  T
   7   -419.7772273  0.304875E-01  0.345E-01    0.01       1.0  T
   8   -419.8043426 -0.271152E-01  0.258E-01    0.01       1.0  T
   9   -419.7663555  0.379870E-01  0.351E-01    0.00       1.0  T
  10   -419.8508084 -0.844528E-01  0.351E-02    0.00       1.0  T
  11   -419.8487910  0.201737E-02  0.631E-02    0.00       1.0  T
  12   -419.8511996 -0.240859E-02  0.190E-02    0.00       1.0  T
  13   -419.8474627  0.373695E-02  0.743E-02    0.01       1.0  T
  14   -419.8513355 -0.387286E-02  0.133E-02    0.00       1.0  T
  15   -419.8501122  0.122327E-02  0.457E-02    0.00       1.0  T
  16   -419.8513074 -0.119513E-02  0.148E-02    0.00       1.0  T
  17   -419.8514398 -0.132419E-03  0.461E-03    0.00       1.4  T
  18   -419.8514527 -0.129310E-04  0.200E-03    0.00       3.2  T
  19   -419.8514535 -0.745207E-06  0.183E-03    0.00       3.5  T
  20   -419.8514548 -0.134793E-05  0.117E-03    0.00       5.5  T
  21   -419.8514553 -0.493137E-06  0.795E-04    0.00       8.1  T
  22   -419.8514556 -0.314433E-06  0.365E-04    0.00      17.6  T
  23   -419.8514557 -0.566259E-07  0.208E-04    0.00      30.9  T
  24   -419.8514557 -0.236071E-07  0.786E-05    0.00      81.7  T
  25   -419.8514557 -0.353958E-08  0.350E-05    0.00     183.5  T
     SCC iter.                  ...        0 min,  7.872 sec
     gradient                   ...        0 min,  1.146 sec
 * total energy  :  -413.2499279 Eh     change       -0.1317915E-01 Eh
   gradient norm :     0.0584091 Eh/α   predicted    -0.1346096E-01 (   2.14%)
   displ. norm   :     0.7048239 α      lambda       -0.1580733E-01
   maximum displ.:     0.2478223 α      in ANC's #67, #66, #32, ...

........................................................................
.............................. CYCLE   20 ..............................
........................................................................
   1   -419.7861824 -0.419786E+03  0.165E-01    0.01       0.0  T
   2   -418.7340381  0.105214E+01  0.132E+00    0.21       1.0  T
   3   -419.2916980 -0.557660E+00  0.923E-01    0.01       1.0  T
   4   -419.7140041 -0.422306E+00  0.378E-01    0.03       1.0  T
   5   -419.7377272 -0.237231E-01  0.327E-01    0.04       1.0  T
   6   -419.5376594  0.200068E+00  0.612E-01    0.06       1.0  T
   7   -419.6783216 -0.140662E+00  0.430E-01    0.01       1.0  T
   8   -419.3087048  0.369617E+00  0.882E-01    0.12       1.0  T
   9   -419.6954326 -0.386728E+00  0.397E-01    0.04       1.0  T
  10   -419.7869701 -0.915374E-01  0.158E-01    0.01       1.0  T
  11   -419.7913644 -0.439434E-02  0.125E-01    0.00       1.0  T
  12   -419.7958008 -0.443636E-02  0.959E-02    0.00       1.0  T
  13   -419.7995368 -0.373605E-02  0.589E-02    0.00       1.0  T
  14   -419.8017455 -0.220866E-02  0.171E-02    0.00       1.0  T
  15   -419.8018842 -0.138743E-03  0.109E-02    0.00       1.0  T
  16   -419.8019458 -0.616099E-04  0.602E-03    0.00       1.1  T
  17   -419.8019686 -0.227574E-04  0.208E-03    0.00       3.1  T
  18   -419.8019668  0.181361E-05  0.260E-03    0.00       2.5  T
  19   -419.8019704 -0.364768E-05  0.124E-03    0.00       5.2  T
  20   -419.8019703  0.113281E-06  0.133E-03    0.00       4.8  T
  21   -419.8019714 -0.108162E-05  0.442E-04    0.00      14.5  T
  22   -419.8019715 -0.113200E-06  0.203E-04    0.00      31.6  T
  23   -419.8019715 -0.261658E-07  0.489E-05    0.00     131.4  T
  24   -419.8019715  0.504718E-08  0.100E-04    0.00      64.0  T
     SCC iter.                  ...        0 min,  7.445 sec
     gradient                   ...        0 min,  1.122 sec
 * total energy  :  -413.2592704 Eh     change       -0.9342551E-02 Eh
   gradient norm :     0.0840409 Eh/α   predicted    -0.1183003E-01 (  26.63%)
   displ. norm   :     0.6836591 α      lambda       -0.1561542E-01
   maximum displ.:     0.2187416 α      in ANC's #67, #66, #32, ...
 * RMSD in coord.:     0.6024316 α      energy gain  -0.1224250E+01 Eh

generating ANC from model Hessian ...
Using Lindh-Hessian (1995)
 Shifting diagonal of input Hessian by    1.0013982795935798E-002
 Lowest  eigenvalues of input Hessian
    0.010000    0.010002    0.010003    0.010004    0.010006    0.010008
    0.010010    0.010011    0.000000    0.000000    0.000000    0.000000
    0.000000    0.000000    0.010029    0.010059    0.010072    0.010101
 Highest eigenvalues
    2.343127    2.387516    2.433321    2.543531    2.852009    2.909862


........................................................................
.............................. CYCLE   21 ..............................
........................................................................
   1   -419.8259037 -0.419826E+03  0.729E-02    0.00       0.0  T
   2   -419.4063214  0.419582E+00  0.831E-01    0.02       1.0  T
   3   -419.3372697  0.690517E-01  0.825E-01    0.02       1.0  T
   4   -419.7462461 -0.408976E+00  0.344E-01    0.04       1.0  T
   5   -419.6980156  0.482304E-01  0.458E-01    0.01       1.0  T
   6   -419.7640160 -0.660003E-01  0.315E-01    0.01       1.0  T
   7   -419.7612429  0.277306E-02  0.307E-01    0.02       1.0  T
   8   -419.8008032 -0.395603E-01  0.208E-01    0.00       1.0  T
   9   -419.7875638  0.132393E-01  0.226E-01    0.02       1.0  T
  10   -419.8135108 -0.259469E-01  0.140E-01    0.01       1.0  T
  11   -419.8215078 -0.799706E-02  0.101E-01    0.00       1.0  T
  12   -419.8266743 -0.516646E-02  0.505E-02    0.01       1.0  T
  13   -419.8250485  0.162575E-02  0.699E-02    0.00       1.0  T
  14   -419.8280393 -0.299073E-02  0.173E-02    0.00       1.0  T
  15   -419.8281844 -0.145159E-03  0.907E-03    0.00       1.0  T
  16   -419.8282353 -0.508974E-04  0.360E-03    0.00       1.8  T
  17   -419.8282401 -0.482179E-05  0.219E-03    0.00       2.9  T
  18   -419.8282423 -0.214252E-05  0.121E-03    0.00       5.3  T
  19   -419.8282429 -0.640666E-06  0.702E-04    0.00       9.2  T
  20   -419.8282432 -0.263903E-06  0.311E-04    0.00      20.7  T
  21   -419.8282432 -0.535451E-07  0.955E-05    0.00      67.3  T
  22   -419.8282432 -0.584646E-08  0.308E-05    0.00     208.9  T
     SCC iter.                  ...        0 min,  6.895 sec
     gradient                   ...        0 min,  1.188 sec
 * total energy  :  -413.2689745 Eh     change       -0.9704060E-02 Eh
   gradient norm :     0.0923854 Eh/α   predicted     0.0000000E+00 (-100.00%)
   displ. norm   :     0.5047499 α      lambda       -0.1228964E-01
   maximum displ.:     0.1474162 α      in ANC's #64, #50, #55, ...

........................................................................
.............................. CYCLE   22 ..............................
........................................................................
   1   -419.8521157 -0.419852E+03  0.218E-02    0.00       0.0  T
   2   -419.7039046  0.148211E+00  0.465E-01    0.00       1.0  T
   3   -419.8487172 -0.144813E+00  0.790E-02    0.00       1.0  T
   4   -419.7948767  0.538406E-01  0.304E-01    0.02       1.0  T
   5   -419.7689218  0.259549E-01  0.351E-01    0.03       1.0  T
   6   -419.8344571 -0.655353E-01  0.163E-01    0.01       1.0  T
   7   -419.8471758 -0.127187E-01  0.850E-02    0.00       1.0  T
   8   -419.8354903  0.116855E-01  0.149E-01    0.01       1.0  T
   9   -419.8515259 -0.160355E-01  0.332E-02    0.00       1.0  T
  10   -419.8486779  0.284799E-02  0.720E-02    0.01       1.0  T
  11   -419.8514591 -0.278120E-02  0.335E-02    0.00       1.0  T
  12   -419.8522282 -0.769111E-03  0.997E-03    0.00       1.0  T
  13   -419.8522007  0.275186E-04  0.123E-02    0.00       1.0  T
  14   -419.8523059 -0.105256E-03  0.194E-03    0.00       3.3  T
  15   -419.8523073 -0.140341E-05  0.141E-03    0.00       4.5  T
  16   -419.8523083 -0.990917E-06  0.734E-04    0.00       8.8  T
  17   -419.8523086 -0.315660E-06  0.312E-04    0.00      20.6  T
  18   -419.8523087 -0.605021E-07  0.839E-05    0.00      76.6  T
  19   -419.8523087 -0.364554E-08  0.334E-05    0.00     192.7  T
     SCC iter.                  ...        0 min,  6.275 sec
     gradient                   ...        0 min,  1.188 sec
 * total energy  :  -413.2785468 Eh     change       -0.9572306E-02 Eh
   gradient norm :     0.0278326 Eh/α   predicted    -0.7773012E-02 ( -18.80%)
   displ. norm   :     0.7522692 α      lambda       -0.1069325E-01
   maximum displ.:     0.2116770 α      in ANC's #55, #50, #64, ...

........................................................................
.............................. CYCLE   23 ..............................
........................................................................
   1   -419.8671103 -0.419867E+03  0.259E-02    0.00       0.0  T
   2   -419.5240519  0.343058E+00  0.719E-01    0.04       1.0  T
   3   -419.8573929 -0.333341E+00  0.130E-01    0.00       1.0  T
   4   -419.7555652  0.101828E+00  0.406E-01    0.02       1.0  T
   5   -419.8223735 -0.668083E-01  0.269E-01    0.01       1.0  T
   6   -419.7948513  0.275222E-01  0.344E-01    0.00       1.0  T
   7   -419.8531600 -0.583088E-01  0.139E-01    0.00       1.0  T
   8   -419.8493342  0.382583E-02  0.157E-01    0.01       1.0  T
   9   -419.8636977 -0.143635E-01  0.688E-02    0.01       1.0  T
  10   -419.8645924 -0.894649E-03  0.623E-02    0.01       1.0  T
  11   -419.8673037 -0.271135E-02  0.522E-03    0.00       1.2  T
  12   -419.8672555  0.482307E-04  0.900E-03    0.00       1.0  T
  13   -419.8673100 -0.545290E-04  0.362E-03    0.00       1.8  T
  14   -419.8673155 -0.547583E-05  0.265E-03    0.00       2.4  T
  15   -419.8673186 -0.315332E-05  0.141E-03    0.00       4.6  T
  16   -419.8673200 -0.141190E-05  0.329E-04    0.00      19.6  T
  17   -419.8673198  0.255260E-06  0.690E-04    0.00       9.3  T
  18   -419.8673201 -0.308577E-06  0.176E-04    0.00      36.6  T
  19   -419.8673201 -0.868408E-08  0.148E-04    0.00      43.5  T
     SCC iter.                  ...        0 min,  6.269 sec
     gradient                   ...        0 min,  1.185 sec
 * total energy  :  -413.2877904 Eh     change       -0.9243637E-02 Eh
   gradient norm :     0.0358218 Eh/α   predicted    -0.8372329E-02 (  -9.43%)
   displ. norm   :     0.8641483 α      lambda       -0.1066126E-01
   maximum displ.:     0.2449380 α      in ANC's #64, #55, #14, ...

........................................................................
.............................. CYCLE   24 ..............................
........................................................................
   1   -419.8699861 -0.419870E+03  0.309E-02    0.00       0.0  T
   2   -419.5293496  0.340637E+00  0.715E-01    0.02       1.0  T
   3   -419.7913091 -0.261960E+00  0.364E-01    0.03       1.0  T
   4   -419.8319386 -0.406296E-01  0.252E-01    0.01       1.0  T
   5   -419.7370278  0.949108E-01  0.439E-01    0.04       1.0  T
   6   -419.8360453 -0.990174E-01  0.231E-01    0.01       1.0  T
   7   -419.8601558 -0.241105E-01  0.117E-01    0.00       1.0  T
   8   -419.8578868  0.226904E-02  0.135E-01    0.00       1.0  T
   9   -419.8656370 -0.775025E-02  0.786E-02    0.01       1.0  T
  10   -419.8683684 -0.273140E-02  0.528E-02    0.01       1.0  T
  11   -419.8695705 -0.120210E-02  0.336E-02    0.00       1.0  T
  12   -419.8701893 -0.618784E-03  0.148E-02    0.00       1.0  T
  13   -419.8700701  0.119164E-03  0.199E-02    0.00       1.0  T
  14   -419.8703189 -0.248802E-03  0.521E-03    0.00       1.2  T
  15   -419.8703349 -0.159645E-04  0.184E-03    0.00       3.5  T
  16   -419.8703371 -0.218047E-05  0.699E-04    0.00       9.2  T
  17   -419.8703369  0.209856E-06  0.931E-04    0.00       6.9  T
  18   -419.8703373 -0.393350E-06  0.509E-04    0.00      12.6  T
  19   -419.8703374 -0.175023E-06  0.803E-05    0.00      80.0  T
  20   -419.8703374  0.477257E-09  0.823E-05    0.00      78.1  T
     SCC iter.                  ...        0 min,  6.622 sec
     gradient                   ...        0 min,  1.194 sec
 * total energy  :  -413.2970252 Eh     change       -0.9234783E-02 Eh
   gradient norm :     0.0384333 Eh/α   predicted    -0.9311299E-02 (   0.83%)
   displ. norm   :     0.8632507 α      lambda       -0.1007335E-01
   maximum displ.:     0.2467108 α      in ANC's #55, #24, #50, ...

........................................................................
.............................. CYCLE   25 ..............................
........................................................................
   1   -419.8750591 -0.419875E+03  0.256E-02    0.00       0.0  T
   2   -419.7326225  0.142437E+00  0.476E-01    0.02       1.0  T
   3   -419.8435021 -0.110880E+00  0.228E-01    0.01       1.0  T
   4   -419.7808080  0.626942E-01  0.369E-01    0.03       1.0  T
   5   -419.8195117 -0.387037E-01  0.300E-01    0.02       1.0  T
   6   -419.8325400 -0.130283E-01  0.260E-01    0.02       1.0  T
   7   -419.8711647 -0.386247E-01  0.750E-02    0.00       1.0  T
   8   -419.8639845  0.718019E-02  0.126E-01    0.00       1.0  T
   9   -419.8749739 -0.109894E-01  0.197E-02    0.00       1.0  T
  10   -419.8742527  0.721130E-03  0.389E-02    0.00       1.0  T
  11   -419.8741212  0.131580E-03  0.390E-02    0.00       1.0  T
  12   -419.8752207 -0.109958E-02  0.642E-03    0.00       1.0  T
  13   -419.8751787  0.420482E-04  0.105E-02    0.00       1.0  T
  14   -419.8752047 -0.260586E-04  0.813E-03    0.00       1.0  T
  15   -419.8752488 -0.440173E-04  0.177E-03    0.00       3.6  T
  16   -419.8752496 -0.878674E-06  0.130E-03    0.00       5.0  T
  17   -419.8752508 -0.114246E-05  0.334E-04    0.00      19.2  T
  18   -419.8752508  0.300465E-07  0.386E-04    0.00      16.6  T
  19   -419.8752508 -0.841533E-07  0.138E-04    0.00      46.5  T
  20   -419.8752508 -0.112211E-07  0.379E-05    0.00     169.5  T
     SCC iter.                  ...        0 min,  6.618 sec
     gradient                   ...        0 min,  1.175 sec
 * total energy  :  -413.3059368 Eh     change       -0.8911612E-02 Eh
   gradient norm :     0.0366458 Eh/α   predicted    -0.8790017E-02 (  -1.36%)
   displ. norm   :     0.8570217 α      lambda       -0.9206979E-02
   maximum displ.:     0.2393312 α      in ANC's #24, #14, #20, ...

........................................................................
.............................. CYCLE   26 ..............................
........................................................................
   1   -419.8915652 -0.419892E+03  0.213E-02    0.00       0.0  T
   2   -419.7567228  0.134842E+00  0.473E-01    0.03       1.0  T
   3   -419.8423311 -0.856084E-01  0.279E-01    0.03       1.0  T
   4   -419.8239648  0.183663E-01  0.311E-01    0.02       1.0  T
   5   -419.8883104 -0.643456E-01  0.781E-02    0.00       1.0  T
   6   -419.7973371  0.909733E-01  0.387E-01    0.03       1.0  T
   7   -419.8878656 -0.905285E-01  0.734E-02    0.00       1.0  T
   8   -419.8839042  0.396139E-02  0.105E-01    0.01       1.0  T
   9   -419.8910726 -0.716838E-02  0.295E-02    0.00       1.0  T
  10   -419.8912717 -0.199049E-03  0.237E-02    0.00       1.0  T
  11   -419.8915592 -0.287521E-03  0.138E-02    0.00       1.0  T
  12   -419.8916637 -0.104553E-03  0.628E-03    0.00       1.0  T
  13   -419.8916629  0.831213E-06  0.622E-03    0.00       1.0  T
  14   -419.8916898 -0.269017E-04  0.113E-03    0.00       5.7  T
  15   -419.8916897  0.758585E-07  0.117E-03    0.00       5.5  T
  16   -419.8916906 -0.879993E-06  0.465E-04    0.00      13.8  T
  17   -419.8916907 -0.125416E-06  0.198E-04    0.00      32.5  T
  18   -419.8916908 -0.237252E-07  0.610E-05    0.00     105.4  T
     SCC iter.                  ...        0 min,  5.868 sec
     gradient                   ...        0 min,  1.154 sec
 * total energy  :  -413.3140372 Eh     change       -0.8100341E-02 Eh
   gradient norm :     0.0276885 Eh/α   predicted    -0.7984692E-02 (  -1.43%)
   displ. norm   :     0.8957395 α      lambda       -0.8751912E-02
   maximum displ.:     0.2571386 α      in ANC's #24, #20, #39, ...

........................................................................
.............................. CYCLE   27 ..............................
........................................................................
   1   -419.8858815 -0.419886E+03  0.192E-02    0.00       0.0  T
   2   -419.6532318  0.232650E+00  0.604E-01    0.01       1.0  T
   3   -419.8817419 -0.228510E+00  0.827E-02    0.00       1.0  T
   4   -419.8532441  0.284978E-01  0.222E-01    0.00       1.0  T
   5   -419.8744905 -0.212464E-01  0.135E-01    0.00       1.0  T
   6   -419.8600571  0.144334E-01  0.204E-01    0.02       1.0  T
   7   -419.8774998 -0.174426E-01  0.109E-01    0.00       1.0  T
   8   -419.8812048 -0.370502E-02  0.830E-02    0.00       1.0  T
   9   -419.8842432 -0.303846E-02  0.514E-02    0.00       1.0  T
  10   -419.8857808 -0.153760E-02  0.190E-02    0.00       1.0  T
  11   -419.8855770  0.203850E-03  0.248E-02    0.00       1.0  T
  12   -419.8858938 -0.316851E-03  0.139E-02    0.00       1.0  T
  13   -419.8859948 -0.100932E-03  0.765E-03    0.00       1.0  T
  14   -419.8860334 -0.385875E-04  0.232E-03    0.00       2.8  T
  15   -419.8860359 -0.256693E-05  0.121E-03    0.00       5.3  T
  16   -419.8860370 -0.105051E-05  0.131E-04    0.00      48.9  T
  17   -419.8860370  0.745274E-09  0.140E-04    0.00      46.0  T
  18   -419.8860370 -0.110135E-07  0.490E-05    0.00     131.1  T
     SCC iter.                  ...        0 min,  5.763 sec
     gradient                   ...        0 min,  1.157 sec
 * total energy  :  -413.3216778 Eh     change       -0.7640586E-02 Eh
   gradient norm :     0.0364716 Eh/α   predicted    -0.7887001E-02 (   3.23%)
   displ. norm   :     0.8642471 α      lambda       -0.7938668E-02
   maximum displ.:     0.2643646 α      in ANC's #24, #14, #20, ...

........................................................................
.............................. CYCLE   28 ..............................
........................................................................
   1   -419.8957790 -0.419896E+03  0.419E-02    0.00       0.0  T
   2   -418.9635377  0.932241E+00  0.121E+00    0.06       1.0  T
   3   -419.6984023 -0.734865E+00  0.558E-01    0.03       1.0  T
   4   -419.8507646 -0.152362E+00  0.270E-01    0.02       1.0  T
   5   -419.8434221  0.734258E-02  0.277E-01    0.01       1.0  T
   6   -419.8194694  0.239527E-01  0.337E-01    0.03       1.0  T
   7   -419.8250466 -0.557721E-02  0.320E-01    0.03       1.0  T
   8   -419.8863365 -0.612899E-01  0.121E-01    0.02       1.0  T
   9   -419.8922467 -0.591023E-02  0.855E-02    0.01       1.0  T
  10   -419.8966173 -0.437057E-02  0.240E-02    0.00       1.0  T
  11   -419.8961373  0.479928E-03  0.361E-02    0.00       1.0  T
  12   -419.8969112 -0.773845E-03  0.137E-02    0.00       1.0  T
  13   -419.8969746 -0.633901E-04  0.884E-03    0.00       1.0  T
  14   -419.8969499  0.246627E-04  0.110E-02    0.00       1.0  T
[...]
   240   1 H    1.003 --   217 C    0.974
   241   1 H    1.004 --   219 C    0.973
   242   1 H    1.002 --   220 C    0.974
 ---------------------------------------------------------------------------

Topologies differ in total number of bonds
Writing topology from bond orders to xtbtopo.mol

 dipole moment from electron density (au)
     X       Y       Z   
   0.4141   0.2137   0.1391  total (Debye):    1.236

           -------------------------------------------------
          |                Geometry Summary                 |
           -------------------------------------------------

      molecular mass/u    :     2239.9619345
   center of mass at/Å    :       61.9209511       0.6296110       0.5164356
  moments of inertia/u·Å² :        0.3472601E+05   0.4989143E+06   0.5198283E+06
rotational constants/cm⁻¹ :        0.4854469E-03   0.3378863E-04   0.3242923E-04

 * 232 selected distances

     #   Z          #   Z                                           value/Å
     2   6 C        3   6 C                                       1.3786830
     3   6 C        4   6 C                                       1.4311783
     4   6 C        5   6 C                                       1.3540460
     5   6 C        6   6 C                                       1.4341387
     3   6 C        7   7 N                                       1.3721349
     6   6 C        7   7 N                                       1.3719847
     6   6 C        8   6 C                                       1.3885543
     9   6 C       10   6 C                                       1.3428336
    11   6 C       12   7 N                                       1.4641339
    12   7 N       13   6 C                                       1.3674152
    13   6 C       14   6 C                                       1.3461457
     8   6 C       15   6 C                                       1.3877201
    15   6 C       16   6 C                                       1.4320077
    16   6 C       17   6 C                                       1.3548915
    15   6 C       18   7 N                                       1.3755470
    17   6 C       19   6 C                                       1.4288071
    18   7 N       19   6 C                                       1.3674824
    19   6 C       20   6 C                                       1.3959855
    20   6 C       21   6 C                                       1.3964035
    21   6 C       22   6 C                                       1.4286998
    22   6 C       23   6 C                                       1.3548403
    23   6 C       24   6 C                                       1.4321452
    21   6 C       25   7 N                                       1.3669234
    24   6 C       25   7 N                                       1.3762578
    24   6 C       26   6 C                                       1.3873095
    27   6 C       28   6 C                                       1.3427946
    29   6 C       30   7 N                                       1.4642519
    30   7 N       31   6 C                                       1.3678229
    31   6 C       32   6 C                                       1.3460173
    26   6 C       33   6 C                                       1.3889736
    33   6 C       34   6 C                                       1.4339695
    34   6 C       35   6 C                                       1.3540730
     2   6 C       36   6 C                                       1.3783487
    35   6 C       36   6 C                                       1.4313111
    33   6 C       37   7 N                                       1.3712742
    36   6 C       37   7 N                                       1.3726160
     2   6 C       38   1 H                                       1.0837459
     4   6 C       39   1 H                                       1.0786021
     5   6 C       40   1 H                                       1.0780261
    10   6 C       41   1 H                                       1.0837493
    11   6 C       42   1 H                                       1.0989968
    11   6 C       43   1 H                                       1.1058480
    12   7 N       44   1 H                                       1.0091620
    13   6 C       45   1 H                                       1.0853045
    14   6 C       46   1 H                                       1.0806722
    16   6 C       47   1 H                                       1.0779798
    17   6 C       48   1 H                                       1.0782302
    22   6 C       49   1 H                                       1.0782128
    23   6 C       50   1 H                                       1.0779183
    28   6 C       51   1 H                                       1.0837534
    29   6 C       52   1 H                                       1.0989371
    29   6 C       53   1 H                                       1.1059286
    30   7 N       54   1 H                                       1.0092559
    31   6 C       55   1 H                                       1.0853045
    32   6 C       56   1 H                                       1.0806950
    34   6 C       57   1 H                                       1.0780521
    35   6 C       58   1 H                                       1.0785896
    60   6 C       61   6 C                                       1.3787558
    61   6 C       62   6 C                                       1.4314212
    62   6 C       63   6 C                                       1.3542784
    63   6 C       64   6 C                                       1.4340904
    61   6 C       65   7 N                                       1.3724921
    64   6 C       65   7 N                                       1.3715891
    64   6 C       66   6 C                                       1.3889910
    67   6 C       68   6 C                                       1.3428363
    69   6 C       70   7 N                                       1.4642420
    70   7 N       71   6 C                                       1.3675378
    71   6 C       72   6 C                                       1.3460147
    66   6 C       73   6 C                                       1.3879199
    73   6 C       74   6 C                                       1.4321244
    74   6 C       75   6 C                                       1.3552235
    73   6 C       76   7 N                                       1.3755783
    75   6 C       77   6 C                                       1.4289021
    76   7 N       77   6 C                                       1.3674952
    77   6 C       78   6 C                                       1.3964559
    78   6 C       79   6 C                                       1.3954859
    79   6 C       80   6 C                                       1.4289796
    80   6 C       81   6 C                                       1.3551935
    81   6 C       82   6 C                                       1.4321004
    79   6 C       83   7 N                                       1.3680410
    82   6 C       83   7 N                                       1.3748506
    82   6 C       84   6 C                                       1.3882678
    85   6 C       86   6 C                                       1.3429145
    87   6 C       88   7 N                                       1.4641169
    88   7 N       89   6 C                                       1.3672787
    89   6 C       90   6 C                                       1.3461530
    84   6 C       91   6 C                                       1.3886789
    91   6 C       92   6 C                                       1.4342498
    92   6 C       93   6 C                                       1.3542754
    60   6 C       94   6 C                                       1.3790074
    93   6 C       94   6 C                                       1.4312917
    91   6 C       95   7 N                                       1.3720913
    94   6 C       95   7 N                                       1.3721062
    60   6 C       96   1 H                                       1.0837157
    62   6 C       97   1 H                                       1.0786079
    63   6 C       98   1 H                                       1.0780739
    68   6 C       99   1 H                                       1.0837403
    69   6 C      100   1 H                                       1.0990392
    69   6 C      101   1 H                                       1.1058317
    70   7 N      102   1 H                                       1.0091883
    71   6 C      103   1 H                                       1.0852882
    72   6 C      104   1 H                                       1.0806687
    74   6 C      105   1 H                                       1.0780053
    75   6 C      106   1 H                                       1.0782476
    80   6 C      107   1 H                                       1.0782671
    81   6 C      108   1 H                                       1.0780208
    86   6 C      109   1 H                                       1.0837498
    87   6 C      110   1 H                                       1.0990695
    87   6 C      111   1 H                                       1.1058271
    88   7 N      112   1 H                                       1.0091357
    89   6 C      113   1 H                                       1.0852970
    90   6 C      114   1 H                                       1.0806912
    92   6 C      115   1 H                                       1.0780627
    93   6 C      116   1 H                                       1.0786114
   117   6 C      118   6 C                                       1.2218679
   119   6 C      120   6 C                                       1.2219954
   121   6 C      122   6 C                                       1.2229521
   123   6 C      124   6 C                                       1.2230383
   125   6 C      126   6 C                                       1.2216380
   127   6 C      128   6 C                                       1.2213387
   130   6 C      131   6 C                                       1.3986067
   131   6 C      132   6 C                                       1.4278911
   132   6 C      133   6 C                                       1.3563659
   133   6 C      134   6 C                                       1.4317377
   131   6 C      135   7 N                                       1.3660444
   134   6 C      135   7 N                                       1.3752879
   134   6 C      136   6 C                                       1.3888380
   137   6 C      138   6 C                                       1.3436003
   139   6 C      140   7 N                                       1.4639774
   140   7 N      141   6 C                                       1.3669180
   141   6 C      142   6 C                                       1.3461727
   136   6 C      143   6 C                                       1.3893114
   143   6 C      144   6 C                                       1.4313997
   144   6 C      145   6 C                                       1.3561234
   143   6 C      146   7 N                                       1.3745951
   145   6 C      147   6 C                                       1.4284171
   146   7 N      147   6 C                                       1.3667071
   147   6 C      148   6 C                                       1.3980535
   148   6 C      149   6 C                                       1.3994986
   149   6 C      150   6 C                                       1.4278680
   150   6 C      151   6 C                                       1.3563142
   151   6 C      152   6 C                                       1.4318790
   149   6 C      153   7 N                                       1.3649906
   152   6 C      153   7 N                                       1.3764131
   152   6 C      154   6 C                                       1.3881139
   155   6 C      156   6 C                                       1.3432181
   157   6 C      158   7 N                                       1.4642036
   158   7 N      159   6 C                                       1.3675710
   159   6 C      160   6 C                                       1.3458414
   154   6 C      161   6 C                                       1.3904904
   161   6 C      162   6 C                                       1.4313646
   162   6 C      163   6 C                                       1.3559392
   130   6 C      164   6 C                                       1.3969801
   163   6 C      164   6 C                                       1.4287028
   161   6 C      165   7 N                                       1.3733741
   164   6 C      165   7 N                                       1.3679347
   132   6 C      166   1 H                                       1.0782554
   133   6 C      167   1 H                                       1.0778854
   138   6 C      168   1 H                                       1.0838033
   139   6 C      169   1 H                                       1.1057874
   139   6 C      170   1 H                                       1.0992421
   140   7 N      171   1 H                                       1.0091288
   141   6 C      172   1 H                                       1.0852957
   142   6 C      173   1 H                                       1.0806210
   144   6 C      174   1 H                                       1.0780896
   145   6 C      175   1 H                                       1.0782414
   150   6 C      176   1 H                                       1.0782464
   151   6 C      177   1 H                                       1.0778635
   156   6 C      178   1 H                                       1.0836641
   157   6 C      179   1 H                                       1.1058007
   157   6 C      180   1 H                                       1.0988400
   158   7 N      181   1 H                                       1.0091902
   159   6 C      182   1 H                                       1.0852508
   160   6 C      183   1 H                                       1.0806560
   162   6 C      184   1 H                                       1.0779879
   163   6 C      185   1 H                                       1.0782077
   187   6 C      188   6 C                                       1.3998903
   188   6 C      189   6 C                                       1.4280322
   189   6 C      190   6 C                                       1.3557363
   190   6 C      191   6 C                                       1.4320169
   188   6 C      192   7 N                                       1.3636927
   191   6 C      192   7 N                                       1.3777362
   191   6 C      193   6 C                                       1.3863087
   194   6 C      195   6 C                                       1.3430202
   196   6 C      197   7 N                                       1.4643864 (max)
   197   7 N      198   6 C                                       1.3675068
   198   6 C      199   6 C                                       1.3458229
   193   6 C      200   6 C                                       1.3908011
   200   6 C      201   6 C                                       1.4311010
   201   6 C      202   6 C                                       1.3555664
   200   6 C      203   7 N                                       1.3719920
   202   6 C      204   6 C                                       1.4288040
   203   7 N      204   6 C                                       1.3686080
   204   6 C      205   6 C                                       1.3957145
   205   6 C      206   6 C                                       1.3980493
   206   6 C      207   6 C                                       1.4277124
   207   6 C      208   6 C                                       1.3558406
   208   6 C      209   6 C                                       1.4319724
   206   6 C      210   7 N                                       1.3652315
   209   6 C      210   7 N                                       1.3764014
   209   6 C      211   6 C                                       1.3879965
   212   6 C      213   6 C                                       1.3428974
   214   6 C      215   7 N                                       1.4641840
   215   7 N      216   6 C                                       1.3671239
   216   6 C      217   6 C                                       1.3460291
   211   6 C      218   6 C                                       1.3894808
   218   6 C      219   6 C                                       1.4312115
   219   6 C      220   6 C                                       1.3554565
   187   6 C      221   6 C                                       1.3972648
   220   6 C      221   6 C                                       1.4289034
   218   6 C      222   7 N                                       1.3735576
   221   6 C      222   7 N                                       1.3673243
   189   6 C      223   1 H                                       1.0782101
   190   6 C      224   1 H                                       1.0778171
   195   6 C      225   1 H                                       1.0837801
   196   6 C      226   1 H                                       1.1057980
   196   6 C      227   1 H                                       1.0992320
   197   7 N      228   1 H                                       1.0092371
   198   6 C      229   1 H                                       1.0853031
   199   6 C      230   1 H                                       1.0806773
   201   6 C      231   1 H                                       1.0780908
   202   6 C      232   1 H                                       1.0781520
   207   6 C      233   1 H                                       1.0782237
   208   6 C      234   1 H                                       1.0777774
   213   6 C      235   1 H                                       1.0836942
   214   6 C      236   1 H                                       1.1056756
   214   6 C      237   1 H                                       1.0990932
   215   7 N      238   1 H                                       1.0090966 (min)
   216   6 C      239   1 H                                       1.0852755
   217   6 C      240   1 H                                       1.0806575
   219   6 C      241   1 H                                       1.0779923
   220   6 C      242   1 H                                       1.0782040

 * 4 distinct bonds (by element types)

   Z      Z             #   av. dist./Å        max./Å        min./Å
   1 H    6 C          74     1.0851994     1.1059286     1.0777774
   6 C    6 C         102     1.3805360     1.4342498     1.2213387
   1 H    7 N           8     1.0091743     1.0092559     1.0090966
   6 C    7 N          48     1.3860630     1.4643864     1.3636927


optimized geometry written to: xtbopt.xyz


           -------------------------------------------------
          | TOTAL ENERGY             -413.459810230812 Eh   |
          | GRADIENT NORM               0.000455882012 Eh/α |
          | HOMO-LUMO GAP               0.001302156637 eV   |
           -------------------------------------------------

------------------------------------------------------------------------
 * finished run on 2022/07/30 at 00:48:55.418     
------------------------------------------------------------------------
 total:
 * wall-time:     0 d,  0 h, 25 min,  6.726 sec
 *  cpu-time:     0 d,  0 h, 24 min, 54.830 sec
 * ratio c/w:     0.992 speedup
 SCF:
 * wall-time:     0 d,  0 h,  0 min, 24.387 sec
 *  cpu-time:     0 d,  0 h,  0 min, 24.190 sec
 * ratio c/w:     0.992 speedup
 ANC optimizer:
 * wall-time:     0 d,  0 h, 24 min, 42.029 sec
 *  cpu-time:     0 d,  0 h, 24 min, 30.337 sec
 * ratio c/w:     0.992 speedup

