242
 energy: -412.035020662142 gnorm: 0.876843378006 xtb: 6.5.1 (b24c23e)
Co          43.44509800000000        0.48929000000000        0.37263200000000
C           40.11055500000000        0.36312500000000        0.33097300000000
C           40.77144599999999       -0.79827400000000        0.33174100000000
C           40.11956199999999       -2.10095600000000        0.38213800000000
C           41.05825600000000       -3.02784500000000        0.32728300000000
C           42.36314099999999       -2.35983800000000        0.22803000000000
N           42.18754200000000       -0.94245100000000        0.24240700000000
C           43.55357800000000       -2.98604300000000        0.11316700000000
C           43.60482099999999       -4.46669200000000        0.06388700000000
C           43.13411900000000       -5.12734600000000       -1.00492600000000
C           43.12325900000000       -6.63298600000000       -1.07911800000000
N           43.92692000000000       -7.25044900000000       -0.02099200000000
C           44.37367400000000       -6.52216600000000        1.12733600000000
C           44.22449099999999       -5.20081600000000        1.18396700000000
C           44.84396900000000       -2.25149900000000        0.03597900000000
C           46.12425000000000       -2.88103200000000       -0.31149600000000
C           47.05875399999999       -1.95356400000000       -0.25121800000000
N           44.98973899999999       -0.98839300000000        0.29522800000000
C           46.38275500000000       -0.72136200000000        0.13459300000000
C           46.97876600000000        0.45831600000000        0.37418600000000
C           46.21474300000000        1.66759700000000        0.74952400000000
C           46.73887599999999        2.72920300000000        1.34945500000000
C           45.69676700000000        3.73505400000000        1.43278200000000
C           44.60683599999999        3.22131600000000        0.87302800000000
N           44.84498300000000        1.88947200000000        0.41546600000000
C           43.33571100000000        3.96207400000000        0.67241400000000
C           43.37493200000000        5.44596900000000        0.67774500000000
C           42.69826499999999        6.14440700000000        1.60476000000000
C           42.67383600000000        7.65146300000000        1.61603800000000
N           43.68062399999999        8.23458800000000        0.72544800000000
C           44.35690700000000        7.46619700000000       -0.27561000000000
C           44.21834700000000        6.14286900000000       -0.31350100000000
C           42.17436700000000        3.31367900000000        0.45886300000000
C           40.87292900000000        3.92667100000000        0.19739800000000
C           40.00962200000000        2.93241900000000        0.11300700000000
C           40.75152099999999        1.68748500000000        0.30510500000000
N           42.01353400000000        1.89756100000000        0.50737700000000
H           39.02732800000000        0.33813400000000        0.34578800000000
H           39.05666500000000       -2.29198500000000        0.45526300000000
H           40.86892400000000       -4.09258800000000        0.35008500000000
H           42.68709100000000       -4.57727100000000       -1.82516600000000
H           43.52056099999999       -6.94907500000000       -2.06737400000000
H           42.07474100000000       -6.98702200000000       -0.99051900000000
H           44.07773500000000       -8.28334200000000       -0.04774800000000
H           44.85541700000000       -7.04697500000000        1.94286200000000
H           44.58368700000000       -4.65879400000000        2.05101100000000
H           46.29165099999999       -3.91765200000000       -0.57364000000000
H           48.10990200000000       -2.10862400000000       -0.45255000000000
H           47.76030600000000        2.84272400000000        1.68775900000000
H           45.80075599999999        4.73028100000000        1.84592500000000
H           42.09865400000000        5.62232000000000        2.34140600000000
H           42.85878599999999        8.00485000000000        2.65213100000000
H           41.66617599999999        7.99501300000000        1.30052900000000
H           43.82330200000000        9.26839200000000        0.74160800000000
H           44.99772500000000        7.96333500000000       -0.99313200000000
H           44.74677700000000        5.57222300000000       -1.06777800000000
H           40.63477900000000        4.97653200000000        0.08973000000000
H           38.94719700000000        3.03482100000000       -0.06851800000000
Co          80.40891700000000        0.42839700000000        0.36602000000000
C           83.74345999999998        0.56056400000000        0.35241200000000
C           83.08256900000001        1.69473000000000        0.60244500000000
C           83.73445300000000        2.95623300000000        0.93127500000000
C           82.79575900000000        3.87329400000000        1.07664600000000
C           81.49087400000001        3.24215900000000        0.83632500000000
N           81.66647300000000        1.85472100000000        0.54614000000000
C           80.30043700000000        3.87842400000000        0.85854800000000
C           80.24919400000000        5.33514100000000        1.12822300000000
C           80.71989599999999        6.20980800000000        0.22612300000000
C           80.73075600000000        7.69628000000000        0.47683100000000
N           79.92709499999999        8.07223600000000        1.64282800000000
C           79.48034100000000        7.11445000000000        2.60807300000000
C           79.62952400000000        5.81174100000000        2.37977000000000
C           79.01004500000001        3.17756700000000        0.62549700000000
C           77.72976500000000        3.86701000000000        0.42124300000000
C           76.79526100000000        2.94822000000000        0.28104500000000
N           78.86427600000000        1.88825500000000        0.60759000000000
C           77.47125900000000        1.66192600000000        0.39338400000000
C           76.87524900000000        0.45831600000000        0.37418600000000
C           77.63927200000001       -0.80334300000000        0.48121600000000
C           77.11513900000000       -1.96897500000000        0.83930100000000
C           78.15724700000000       -2.96926800000000        0.70479000000000
C           79.24717800000001       -2.34735800000000        0.26835200000000
N           79.00903199999999       -0.94834500000000        0.10732000000000
C           80.51830400000000       -3.02779200000000       -0.08658300000000
C           80.47908299999999       -4.47824700000000       -0.39988000000000
C           81.15575000000000       -5.35938100000000        0.35561700000000
C           81.18017900000000       -6.83373300000000        0.04315700000000
N           80.17339100000000       -7.21211100000000       -0.95183800000000
C           79.49710700000000       -6.24676200000000       -1.76463700000000
C           79.63566799999998       -4.94614300000000       -1.51760600000000
C           81.67964799999999       -2.34867200000000       -0.15598600000000
C           82.98108599999999       -2.89125700000000       -0.54292900000000
C           83.84439299999998       -1.90206400000000       -0.41194800000000
C           83.10249300000000       -0.72737700000000        0.04288600000000
N           81.84048100000000       -0.97597300000000        0.19535300000000
H           84.82668600000000        0.58179300000000        0.37224500000000
H           84.79734999999999        3.12711400000000        1.04369800000000
H           82.98509100000000        4.90832700000000        1.32745300000000
H           81.16692299999998        5.84860900000000       -0.69306800000000
H           80.33345300000001        8.21712100000000       -0.42054700000000
H           81.77927300000000        8.02304800000000        0.63935600000000
H           79.77627899999999        9.08679800000000        1.83839600000000
H           78.99859800000000        7.45198300000000        3.51723800000000
H           79.27032799999999        5.09624900000000        3.11026700000000
H           77.56236400000000        4.93573600000000        0.38770900000000
H           75.74411300000000        3.14288000000000        0.11768700000000
H           76.09370800000001       -2.15246400000000        1.14535400000000
H           78.05325900000000       -4.02997700000000        0.89468900000000
H           81.75536000000000       -5.00757500000000        1.18715500000000
H           80.99522899999999       -7.40127100000000        0.97925100000000
H           82.18783900000000       -7.10155500000000       -0.33873800000000
H           80.03071300000001       -8.22528900000000       -1.15795100000000
H           78.85629000000000       -6.57830400000000       -2.57214200000000
H           79.10723799999998       -4.22689800000000       -2.13182000000000
H           83.21923599999998       -3.89353900000000       -0.87343000000000
H           84.90681700000000       -1.96311700000000       -0.61122100000000
C           49.52812200000000        0.47075300000000        0.37662700000000
C           48.27585199999999        0.45157200000000        0.37227900000000
C           50.84179000000000        0.46998700000000        0.37856000000000
C           52.34492400000000        0.45157200000000        0.37227900000000
C           61.18974499999999        0.47075300000000        0.37662700000000
C           59.93747400000000        0.45157200000000        0.37227900000000
C           62.50341299999999        0.46998700000000        0.37856000000000
C           64.00654700000000        0.45157200000000        0.37227900000000
C           72.85136700000000        0.47075300000000        0.37662700000000
C           71.59909700000000        0.45157200000000        0.37227900000000
C           74.16503600000000        0.46998700000000        0.37856000000000
C           75.66816899999999        0.45157200000000        0.37227900000000
Co          55.80655700000000        0.04593000000000       -0.25452600000000
C           52.97290600000000       -0.51389100000000       -0.41993800000000
C           53.29213499999999        0.53143100000000       -1.18493500000000
C           53.08797400000000        1.93193400000000       -0.81033500000000
C           53.89712600000000        2.68367600000000       -1.53808400000000
C           54.76210100000000        1.79323900000000       -2.31575000000000
N           54.34732600000000        0.44183800000000       -2.13502900000000
C           55.99463700000000        2.13105300000000       -2.73365900000000
C           56.33930200000000        3.54705400000000       -3.03179300000000
C           55.54575000000000        4.27973200000000       -3.83144700000000
C           55.85429700000000        5.70987900000000       -4.19309800000000
N           56.98265100000000        6.25046100000000       -3.42913500000000
C           57.84081800000000        5.42964000000000       -2.63498500000000
C           57.55080600000000        4.14849400000000       -2.43823900000000
C           57.09529900000000        1.16424000000000       -2.54073800000000
C           58.22525400000000        0.96477200000000       -3.44995300000000
C           59.12227899999999        0.22675300000000       -2.81271400000000
N           57.30598900000000        0.60987400000000       -1.38968600000000
C           58.58287300000000       -0.00850500000000       -1.47522700000000
C           59.24636100000000       -0.51389100000000       -0.41993800000000
C           58.64409500000000       -0.56247400000000        0.93552400000000
C           59.32233399999999       -0.56805400000000        2.07978500000000
C           58.34812000000000       -0.62504300000000        3.16181100000000
C           57.14012399999999       -0.66082000000000        2.60455900000000
N           57.24288300000000       -0.61948500000000        1.17968300000000
C           55.85167100000000       -0.80464900000000        3.34429200000000
C           55.86594900000000       -1.23700300000000        4.76480300000000
C           56.44487899999999       -2.39806700000000        5.10923200000000
C           56.51497600000000       -2.86014100000000        6.54150700000000
N           55.57269500000000       -2.14195100000000        7.39819200000000
C           55.04583100000000       -0.86172400000000        7.03311100000000
C           55.18671599999999       -0.41548800000000        5.78467000000000
C           54.67688100000000       -0.63790800000000        2.70459500000000
C           53.34630700000000       -1.03427300000000        3.17193600000000
C           52.54588699999999       -0.96135100000000        2.11676100000000
C           53.34239100000000       -0.46789700000000        0.99477300000000
N           54.57519700000000       -0.29222700000000        1.33461700000000
H           52.40864900000000        2.30066100000000       -0.05391100000000
H           53.99822700000000        3.75434000000000       -1.43039400000000
H           54.66994100000000        3.82806200000000       -4.27997100000000
H           56.08824900000000        5.76236800000000       -5.27946800000000
H           54.95367100000000        6.33121500000000       -3.99540600000000
H           57.22411800000000        7.25571500000000       -3.54519200000000
H           58.72068600000000        5.85753200000000       -2.17817500000000
H           58.20351000000000        3.55205500000000       -1.81428900000000
H           58.33069900000000        1.36388600000000       -4.45103000000000
H           60.08044999999999       -0.07908600000000       -3.21114800000000
H           60.39661799999999       -0.52310800000000        2.19232200000000
H           58.57019099999999       -0.65598400000000        4.22172400000000
H           56.93132600000000       -3.00256100000000        4.35840900000000
H           57.54447300000000       -2.70104500000000        6.92068400000000
H           56.28477300000000       -3.94580400000000        6.57975700000000
H           55.41180099999999       -2.49206400000000        8.36945900000000
H           54.50343599999999       -0.27755300000000        7.75824700000000
H           54.76847200000000        0.54990700000000        5.51815200000000
H           53.06747899999999       -1.40206900000000        4.14942900000000
H           51.50555700000000       -1.24641800000000        2.09466200000000
Co          67.46818000000000        0.04593000000000       -0.25452600000000
C           64.63452900000000       -0.51389100000000       -0.41993800000000
C           64.95375799999999        0.53143100000000       -1.18493500000000
C           64.74959600000000        1.93193400000000       -0.81033500000000
C           65.55874900000001        2.68367600000000       -1.53808400000000
C           66.42372400000001        1.79323900000000       -2.31575000000000
N           66.00894900000000        0.44183800000000       -2.13502900000000
C           67.65625900000001        2.13105300000000       -2.73365900000000
C           68.00092500000000        3.54705400000000       -3.03179300000000
C           67.20737300000000        4.27973200000000       -3.83144700000000
C           67.51591999999999        5.70987900000000       -4.19309800000000
N           68.64427400000000        6.25046100000000       -3.42913500000000
C           69.50244000000001        5.42964000000000       -2.63498500000000
C           69.21242800000000        4.14849400000000       -2.43823900000000
C           68.75692200000000        1.16424000000000       -2.54073800000000
C           69.88687699999998        0.96477200000000       -3.44995300000000
C           70.78390200000000        0.22675300000000       -2.81271400000000
N           68.96761199999999        0.60987400000000       -1.38968600000000
C           70.24449500000000       -0.00850500000000       -1.47522700000000
C           70.90798400000000       -0.51389100000000       -0.41993800000000
C           70.30571700000000       -0.56247400000000        0.93552400000000
C           70.98395699999999       -0.56805400000000        2.07978500000000
C           70.00974300000000       -0.62504300000000        3.16181100000000
C           68.80174700000001       -0.66082000000000        2.60455900000000
N           68.90450600000000       -0.61948500000000        1.17968300000000
C           67.51329300000000       -0.80464900000000        3.34429200000000
C           67.52757099999999       -1.23700300000000        4.76480300000000
C           68.10650200000001       -2.39806700000000        5.10923200000000
C           68.17659800000000       -2.86014100000000        6.54150700000000
N           67.23431800000000       -2.14195100000000        7.39819200000000
C           66.70745300000000       -0.86172400000000        7.03311100000000
C           66.84833800000000       -0.41548800000000        5.78467000000000
C           66.33850400000000       -0.63790800000000        2.70459500000000
C           65.00793000000000       -1.03427300000000        3.17193600000000
C           64.20751000000000       -0.96135100000000        2.11676100000000
C           65.00401400000000       -0.46789700000000        0.99477300000000
N           66.23681999999999       -0.29222700000000        1.33461700000000
H           64.07027200000000        2.30066100000000       -0.05391100000000
H           65.65985000000001        3.75434000000000       -1.43039400000000
H           66.33156300000000        3.82806200000000       -4.27997100000000
H           67.74987200000000        5.76236800000000       -5.27946800000000
H           66.61529400000001        6.33121500000000       -3.99540600000000
H           68.88574100000000        7.25571500000000       -3.54519200000000
H           70.38230899999999        5.85753200000000       -2.17817500000000
H           69.86513300000000        3.55205500000000       -1.81428900000000
H           69.99232200000000        1.36388600000000       -4.45103000000000
H           71.74207300000000       -0.07908600000000       -3.21114800000000
H           72.05824000000000       -0.52310800000000        2.19232200000000
H           70.23181399999999       -0.65598400000000        4.22172400000000
H           68.59294900000000       -3.00256100000000        4.35840900000000
H           69.20609599999999       -2.70104500000000        6.92068400000000
H           67.94639599999999       -3.94580400000000        6.57975700000000
H           67.07342300000001       -2.49206400000000        8.36945900000000
H           66.16505800000000       -0.27755300000000        7.75824700000000
H           66.43009499999999        0.54990700000000        5.51815200000000
H           64.72910100000000       -1.40206900000000        4.14942900000000
H           63.16717900000000       -1.24641800000000        2.09466200000000
242
 energy: -412.384941047203 gnorm: 0.539677390338 xtb: 6.5.1 (b24c23e)
Co          43.45316157075496        0.48193182991643        0.37110982022497
C           40.11164382969976        0.37891133280366        0.33000745586771
C           40.77860519653439       -0.79772878101674        0.33170566922775
C           40.12000819047012       -2.09362611919137        0.38226466478118
C           41.06871390947591       -3.02817223589789        0.32640935768695
C           42.36360673547929       -2.35019801023648        0.22922404814526
N           42.17700077478823       -0.94990510752219        0.24698399732125
C           43.56933656296741       -2.98235898059484        0.11375759032253
C           43.61009002900200       -4.46522260509756        0.06498403047792
C           43.13411688553146       -5.12802020580678       -0.99886158464390
C           43.12556063127431       -6.63497790288260       -1.07549391786042
N           43.93427723946998       -7.24903190693103       -0.01185698465551
C           44.36812854691002       -6.52707762835801        1.11513122964790
C           44.22317853615178       -5.19622938792405        1.17936182434089
C           44.83409739288138       -2.26927124957786        0.03496156759026
C           46.10785496789723       -2.89329950692542       -0.30964732458623
C           47.05268779358221       -1.94650924789391       -0.24931767163257
N           44.98983085715093       -0.98073647859248        0.28444760016600
C           46.36492419410586       -0.73384734024415        0.13334905001889
C           46.96331807581988        0.46973554700966        0.38190635390845
C           46.19759075753649        1.66503243836391        0.73904260566388
C           46.73823494173782        2.74825046099647        1.35444146085978
C           45.71442360202753        3.73733331930732        1.43472535667363
C           44.59593623101975        3.21187035746818        0.86181542422251
N           44.83710941403461        1.88595127488416        0.42995107996891
C           43.34946777889450        3.95418516296833        0.67022766878729
C           43.38239893857681        5.44105252461911        0.67818980145814
C           42.69996452026902        6.14321578071520        1.59784251568627
C           42.67726140570521        7.65254049728382        1.61289280142825
N           43.68965062676943        8.23259394826219        0.71806391268349
C           44.34839102405640        7.47096993780559       -0.26508267816416
C           44.21586607015449        6.13782499788785       -0.30910789659167
C           42.17527128484627        3.30993238345987        0.45821865807052
C           40.88118397935914        3.92460171875943        0.19903623271322
C           40.00162121871494        2.92043815282901        0.11421847819319
C           40.73624310751728        1.67828061048073        0.30537057593592
N           42.02042686896551        1.89984719244333        0.49888684270906
H           39.02793123160405        0.34328268547953        0.34496370796833
H           39.05737268388998       -2.28424086303247        0.45514962363482
H           40.87876406904224       -4.09262541368460        0.34951199608676
H           42.68846880064763       -4.58171691966093       -1.82513629976904
H           43.51846500362436       -6.95046545500165       -2.06207659358599
H           42.07745856703236       -6.98839402947949       -0.99320630633695
H           44.07490097996354       -8.26668491927965       -0.04494958054474
H           44.85196514452796       -7.05456244546397        1.93319585780193
H           44.58201060432111       -4.65699129998492        2.04837919300860
H           46.28368717371321       -3.92283552393226       -0.57296515446575
H           48.10657879251790       -2.09884476006026       -0.45005825726357
H           47.75964591940161        2.84644201626949        1.68971145397082
H           45.80543031514932        4.73003556210675        1.84761209611208
H           42.09993905017583        5.62662360097638        2.34132177613869
H           42.85779927781540        8.00616352196684        2.64669110441140
H           41.66867673057165        7.99613527848643        1.30352892676777
H           43.82103348757628        9.25163578804524        0.73909278182014
H           44.99226937394244        7.97096120428369       -0.98445346526144
H           44.74482193887673        5.57037340718498       -1.06550576812753
H           40.64384916514769        4.97497552832707        0.09112005003295
H           38.94419054697107        3.02796848733842       -0.06860245944843
Co          80.40082748782085        0.43649415705454        0.36517813488139
C           83.74240157448617        0.54551443262328        0.34808903081625
C           83.07549426896279        1.69422227711440        0.60226307985571
C           83.73402891879077        2.94896347721761        0.92984222770731
C           82.78519655230548        3.87372704819133        1.07593329921826
C           81.49046937238138        3.23267602619887        0.83498898778472
N           81.67640116941051        1.86010257528520        0.55294432416266
C           80.28473374691022        3.87472338963549        0.85803041471524
C           80.24402048938647        5.33335728117708        1.12892625601583
C           80.71997837029150        6.20918965472180        0.23219140276608
C           80.72842172333817        7.69744074560040        0.48079787842656
N           79.91971424617641        8.06891144155980        1.65140355538855
C           79.48588435011490        7.12179371857988        2.59719553593566
C           79.63085685487016        5.80820608651790        2.37425501318146
C           79.01886278594145        3.19632091974713        0.62929055511873
C           77.74767000386271        3.87938620685389        0.42627685561652
C           76.80175014792943        2.94041448698189        0.28123185320057
N           78.86150129158285        1.88255096306337        0.59778541706138
C           77.48992612915249        1.67891082410575        0.38917598797779
C           76.88117232494096        0.44351048201063        0.37558252687615
C           77.65792523024237       -0.80177932223954        0.47618235252818
C           77.11584957295936       -1.98893530672302        0.84051979973359
C           78.14051074769881       -2.97241657298252        0.70579228290882
C           79.25781432986081       -2.33601781492221        0.25932645841049
N           79.01675862875801       -0.94817743646050        0.12153428265350
C           80.50515053401608       -3.01979845866813       -0.08721903065458
C           80.47169027039958       -4.47352532346318       -0.39846891715602
C           81.15416731169520       -5.35679930607337        0.34909847363973
C           81.17668649261631       -6.83410908824681        0.03985836132504
N           80.16438654431475       -7.20852944971559       -0.95866423429599
C           79.50562631583239       -6.25373663927444       -1.75532348876271
C           79.63815297458217       -4.94213216515361       -1.51220949280775
C           81.67882961796253       -2.34519251834021       -0.15566620126110
C           82.97296802005719       -2.88970660479517       -0.54096529399663
C           83.85241086618970       -1.89078319140040       -0.40829179508483
C           83.11759808234990       -0.71868283200786        0.04501534988962
N           81.83391203611693       -0.97630658729443        0.18689093442529
H           84.82609301351161        0.57696274247719        0.37040081677645
H           84.79664449882310        3.11955981703616        1.04188464856380
H           82.97523590227385        4.90844747934113        1.32690166759803
H           81.16554485334431        5.85296799006904       -0.69210904857356
H           80.33555549616115        8.21735588567352       -0.41509063146889
H           81.77653906196413        8.02493297075445        0.63702037144856
H           79.77914449570656        9.06993614054917        1.83756779428151
H           79.00207167728496        7.46143849075084        3.50942139904884
H           79.27199667566380        5.09504722092148        3.10728136188013
H           77.57065901328453        4.94093211567661        0.38927924417293
H           75.74752235248836        3.13225939876043        0.11804695742098
H           76.09421225072299       -2.15634788810160        1.14639575505461
H           78.04884896944601       -4.03021450487180        0.89653614400758
H           81.75407516282436       -5.01177145105158        1.18618013770135
H           80.99621564484296       -7.40137790716048        0.97365205530868
H           82.18529869606520       -7.10324793064412       -0.33603518643314
H           80.03296363562430       -8.20836587452642       -1.15680568994972
H           78.86177094399508       -6.58760525477998       -2.56527797840733
H           79.10919111044821       -4.22558058989852       -2.12918809362268
H           83.21022663987567       -3.89237603646766       -0.87177782029202
H           84.90983672007999       -1.95642968928608       -0.60985803885420
C           49.56052585807706        0.48074569909153        0.37612822176204
C           48.30207534839822        0.46737122880348        0.37258821325737
C           50.86011002334133        0.46317338001628        0.39144510031904
C           52.26062908270088        0.42649006628341        0.38962529735867
C           61.25129611388837        0.48205106244918        0.39418766917814
C           59.95142802375538        0.44670012207630        0.35289546620250
C           62.51336577666708        0.47918594763496        0.39512002114263
C           63.93810717948890        0.42935050683785        0.38482629580082
C           72.91512033157849        0.47517956010334        0.38847841289153
C           71.62535356190391        0.44788058631704        0.35259496895903
C           74.20489689019728        0.47571275040610        0.38251556994780
C           75.57045875404621        0.44262636804169        0.37077312589664
Co          55.82315795350768        0.04050047656775       -0.23003412365751
C           52.95463763629635       -0.52508779897228       -0.42837144506777
C           53.32149321232537        0.54529501009473       -1.20340479294799
C           53.08074218232888        1.94010142675566       -0.82663553408785
C           53.90304214122651        2.69343967874889       -1.55119564849570
C           54.75771659016754        1.79256297341685       -2.31314420231188
N           54.36506644970246        0.46174137479656       -2.11605983281028
C           56.00746273549036        2.13704557911876       -2.73478444779058
C           56.34392123326941        3.54370460409706       -3.03059474562643
C           55.54904734189325        4.28045583788815       -3.82821441447687
C           55.85812911658791        5.71091300696155       -4.19048945711778
N           56.99002447581773        6.24892166984938       -3.42159309406273