210
 energy: -320.763647198742 gnorm: 0.468577381228 xtb: 6.5.1 (b24c23e)
C           28.17192400000000       -0.04983800000000        0.08571800000000
C           28.90052300000000        1.23023000000000        0.59876800000000
C           28.29039800000000        2.33669800000000        1.14424600000000
C           29.31199400000000        3.28275100000000        1.41739400000000
C           30.51192600000000        2.72300200000000        1.02440200000000
N           30.25365800000000        1.45324800000000        0.57169900000000
C           31.93546100000000        3.42129700000000        1.05542400000000
C           33.06378200000000        2.70871800000000        0.78985900000000
C           34.36757999999999        3.33776400000000        0.73793800000000
C           35.26820700000000        2.41172900000000        0.43109100000000
N           33.25927900000000        1.38059800000000        0.51461600000000
C           34.58943100000000        1.13860300000000        0.28778300000000
C           35.25675900000000       -0.00634800000000       -0.01682500000000
C           34.48217300000000       -1.38759100000000       -0.12606300000000
C           35.02974300000000       -2.64420200000000        0.04708400000000
C           34.00515500000000       -3.59383400000000       -0.18934600000000
C           32.85757900000000       -2.89131200000000       -0.48781300000000
C           31.44484400000000       -3.51654300000000       -0.85035900000000
C           31.41341200000000       -4.90294800000000       -1.37078300000000
C           31.05009900000000       -5.96754500000000       -0.53629400000000
C           31.03065000000000       -7.28147000000000       -1.02018200000000
C           30.59912200000000       -8.40809800000000       -0.13238500000000
C           31.36563600000000       -7.51947400000000       -2.36088500000000
C           31.74827100000000       -6.46703900000000       -3.20472200000000
C           32.07861700000000       -6.71892500000000       -4.64384800000000
C           31.76027600000000       -5.15980100000000       -2.70186000000000
C           30.31961600000000       -2.77074100000000       -0.69659000000000
C           28.99527800000000       -3.27037600000000       -1.02172900000000
C           28.11073300000000       -2.31452900000000       -0.75333600000000
C           28.83530300000000       -1.16932500000000       -0.25891800000000
N           30.15700300000000       -1.48854200000000       -0.25034800000000
N           33.14488400000000       -1.54949000000000       -0.39598400000000
C           31.97459300000000        4.87706100000000        1.33458200000000
C           32.24522700000000        5.34114900000000        2.62761500000000
C           32.27351500000000        6.71387600000000        2.90308300000000
C           32.61011200000000        7.19432700000000        4.28122400000000
C           32.04387100000000        7.62346400000000        1.86080400000000
C           31.75514600000000        7.17455600000000        0.56397500000000
C           31.53697800000000        8.14732000000000       -0.55424500000000
C           31.73266500000000        5.79775500000000        0.30850000000000
H           27.09317100000000       -0.01581800000000       -0.00807300000000
H           27.23112000000000        2.45618800000000        1.31129400000000
H           29.18407000000000        4.27146200000000        1.83264800000000
H           30.95531200000000        0.78774800000000        0.25543600000000
H           34.57876800000000        4.37915700000000        0.90396400000000
H           36.32076000000000        2.59719500000000        0.32032500000000
H           36.05591100000000       -2.85842800000000        0.30385500000000
H           34.09368800000000       -4.66935000000000       -0.14936400000000
H           30.77735600000000       -5.74585200000000        0.49416600000000
H           29.54600700000000       -8.64685300000000       -0.31447400000000
H           31.20484500000000       -9.30163200000000       -0.32006300000000
H           30.72160100000000       -8.14856500000000        0.92499500000000
H           31.32804500000000       -8.53366100000000       -2.75029800000000
H           32.82343400000000       -6.00231700000000       -5.00434700000000
H           32.50025800000000       -7.72040300000000       -4.77901500000000
H           31.17655500000000       -6.62996200000000       -5.25647800000000
H           32.03394600000000       -4.31906600000000       -3.33721800000000
H           28.76528500000000       -4.24416300000000       -1.41514000000000
H           27.04602200000000       -2.37435900000000       -0.88770300000000
H           32.45757200000000       -0.80312700000000       -0.46289300000000
H           32.44102600000000        4.60963200000000        3.40987000000000
H           32.22051400000000        6.50769200000000        5.04038300000000
H           32.16531700000000        8.17610300000000        4.47287100000000
H           33.69501600000000        7.27172300000000        4.39600500000000
H           32.09021900000000        8.69083700000000        2.06015100000000
H           31.12273200000000        9.08906000000000       -0.17913800000000
H           32.48486700000000        8.35581400000000       -1.05893800000000
H           30.82576000000000        7.74895500000000       -1.28518200000000
H           31.53178700000000        5.41781700000000       -0.69183200000000
C           59.11435600000000       -0.02061800000000        0.09364200000000
C           58.38575800000000       -1.38451700000000       -0.11025400000000
C           58.99588299999999       -2.61497900000000       -0.19846400000000
C           57.97428600000000       -3.56942500000000       -0.44066100000000
C           56.77435499999999       -2.88782100000000       -0.49704400000000
N           57.03262299999999       -1.56331000000000       -0.24627900000000
C           55.35081900000000       -3.50613200000000       -0.82303700000000
C           54.22249799999999       -2.75700800000000       -0.69224200000000
C           52.91870100000000       -3.27365400000000       -1.05483200000000
C           52.01807300000000       -2.31946000000000       -0.85183100000000
N           54.02700099999999       -1.47177500000000       -0.25884100000000
C           52.69684999999999       -1.14833800000000       -0.33235000000000
C           52.02952100000000       -0.00634800000000       -0.01682500000000
C           52.80410800000000        1.24086900000000        0.58667700000000
C           52.25653700000000        2.23787200000000        1.37092000000000
C           53.28112500000000        3.17685700000000        1.64661300000000
C           54.42870100000000        2.72135100000000        1.03413300000000
C           55.84143600000000        3.44408400000000        1.03710400000000
C           55.87286799999999        4.90347900000000        1.28835500000000
C           56.23618100000000        5.40067400000000        2.54634300000000
C           56.25563000000000        6.77906100000000        2.79251000000000
C           56.68715800000000        7.30285900000000        4.12784100000000
C           55.92064400000000        7.66175700000000        1.75569900000000
C           55.53801000000000        7.17978200000000        0.49578700000000
C           55.20766400000000        8.12418000000000       -0.61895100000000
C           55.52600399999999        5.79758000000000        0.26937400000000
C           56.96666399999999        2.72276600000000        0.79304400000000
C           58.29100300000000        3.31821200000000        0.76485000000000
C           59.17554700000000        2.35771600000000        0.51360300000000
C           58.45097800000000        1.11961800000000        0.36175900000000
N           57.12927700000000        1.39077800000000        0.53041600000000
N           54.14139599999999        1.51694900000000        0.43552000000000
C           55.31168800000000       -4.90350100000000       -1.31754200000000
C           55.04105400000000       -5.95723100000000       -0.43608500000000
C           55.01276499999999       -7.28107400000000       -0.89182600000000
C           54.67616900000000       -8.39191900000000        0.05481500000000
C           55.24240899999999       -7.53952200000000       -2.25083300000000
C           55.53113400000000       -6.49697600000000       -3.14323600000000
C           55.74930299999999       -6.77158300000000       -4.59969600000000
C           55.55361600000000       -5.17971800000000       -2.66818200000000
H           60.19310899999999       -0.00259600000000       -0.00448800000000
H           60.05516100000000       -2.80249000000000       -0.11466300000000
H           58.10221000000000       -4.63247400000000       -0.58176800000000
H           56.33096900000000       -0.82920400000000       -0.18302100000000
H           52.70751300000000       -4.25626400000000       -1.43764100000000
H           50.96551999999999       -2.42356300000000       -1.04111700000000
H           51.23036900000000        2.29303600000000        1.70074100000000
H           53.19259300000000        4.08484400000000        2.22444700000000
H           56.50892400000000        4.68878300000000        3.32365000000000
H           57.74027300000000        7.60089600000000        4.09131100000000
H           56.08143500000000        8.16880200000000        4.41726800000000
H           56.56468000000000        6.54471100000000        4.90926400000000
H           55.95823500000000        8.73373900000000        1.93197800000000
H           54.46284600000000        7.68785400000000       -1.29208200000000
H           54.78602200000000        9.05675300000000       -0.22967500000000
H           56.10972499999999        8.35689100000000       -1.19260200000000
H           55.25233500000000        5.39298400000000       -0.70367200000000
H           58.52099499999999        4.35734700000000        0.91726900000000
H           60.24025799999999        2.47722900000000        0.42786800000000
H           54.82870900000000        0.90662800000000        0.00072900000000
H           54.84525499999999       -5.72110100000000        0.60856000000000
H           55.06576600000000       -8.18285500000000        1.05685400000000
H           55.12096399999999       -9.33602200000000       -0.27576500000000
H           53.59126400000000       -8.51669800000000        0.11477300000000
H           55.19606099999999       -8.56138700000000       -2.61801000000000
H           56.16354800000000       -7.77381400000000       -4.75172100000000
H           54.80141400000000       -6.69655600000000       -5.14058000000000
H           56.46052000000000       -6.05853400000000       -5.02925900000000
H           55.75449299999999       -4.34647800000000       -3.33954500000000
C           37.48537200000000       -0.00634800000000       -0.01682500000000
C           38.70729000000000       -0.00634800000000       -0.01682500000000
C           48.57899099999999       -0.00634800000000       -0.01682500000000
C           49.80090800000000       -0.00634800000000       -0.01682500000000
C           40.06798700000000        0.01325600000000        0.03513400000000
C           40.85937200000000       -1.12651500000000        0.80108800000000
C           40.34636200000000       -1.99269300000000        1.74538500000000
C           41.38309500000000       -2.89173400000000        2.10335900000000
C           42.49910000000000       -2.54188400000000        1.37260900000000
N           42.19084599999999       -1.42295400000000        0.63969800000000
C           43.89191700000000       -3.29693600000000        1.36670300000000
C           45.02591099999999       -2.63140100000000        1.02261400000000
C           46.31399000000000       -3.28899400000000        0.94318600000000
C           47.22097700000000       -2.39021300000000        0.57591700000000
N           45.23267400000000       -1.32312300000000        0.68170300000000
C           46.55740200000000       -1.11294800000000        0.40625000000000
C           47.22116399999999        0.01325600000000        0.03513400000000
C           46.42907300000000        1.37626500000000       -0.12737800000000
C           46.93953300000000        2.64898600000000        0.03201700000000
C           45.90306099999999        3.56386900000000       -0.28405900000000
C           44.78968900000000        2.82186300000000       -0.61857600000000
C           43.39772100000000        3.38991200000000       -1.11728100000000
C           43.40298400000000        4.70060900000000       -1.80961000000000
C           42.97527200000000        5.85653100000000       -1.14407500000000
C           42.99597099999999        7.10131000000000       -1.78554500000000
C           42.57198400000000        8.33479000000000       -1.04847500000000
C           43.47462200000000        7.18231400000000       -3.10097900000000
C           43.89532499999999        6.03317000000000       -3.78572800000000
C           44.43348600000000        6.12587500000000       -5.18067100000000
C           43.86590000000000        4.79747900000000       -3.12671700000000
C           42.26372500000000        2.66117300000000       -0.94313800000000
C           40.97584800000000        3.10724100000000       -1.43313500000000
C           40.06874400000000        2.18709200000000       -1.12390600000000
C           40.73209000000000        1.10871300000000       -0.41848300000000
N           42.05680000000000        1.44782400000000       -0.34669200000000
N           45.09907700000000        1.49525300000000       -0.44919900000000
C           43.88628099999999       -4.74122900000000        1.70058100000000
C           43.42471399999999       -5.67627500000000        0.76722300000000
C           43.39084199999999       -7.04149900000000        1.07896200000000
C           42.85376200000000       -8.02384400000000        0.08342900000000
C           43.80570700000000       -7.46196500000000        2.35093900000000
C           44.28330800000000       -6.54008000000000        3.29321600000000
C           44.70015100000000       -6.98777100000000        4.66075000000000
C           44.30886800000000       -5.17945200000000        2.96207900000000
H           39.33410400000000       -1.99450300000000        2.11983700000000
H           41.31843400000000       -3.71469900000000        2.79931200000000
H           42.85520500000000       -0.87649500000000        0.09944500000000
H           46.50917399999999       -4.32887800000000        1.13602400000000
H           48.26604200000000       -2.59582200000000        0.43281600000000
H           47.94995500000000        2.89450800000000        0.32169700000000
H           45.96592900000000        4.64177200000000       -0.28710400000000
H           42.62732000000000        5.76290000000000       -0.11664300000000
H           43.43608600000000        8.79377600000000       -0.55789100000000
H           42.12484500000000        9.06283700000000       -1.73354200000000
H           41.81860699999999        8.09946700000000       -0.28891000000000
H           43.51929000000000        8.14840800000000       -3.59698400000000
H           44.21938400000000        5.21146300000000       -5.74386600000000
H           45.51647999999999        6.28062800000000       -5.15462600000000
H           43.97073300000000        6.95671200000000       -5.72375400000000
H           44.20557100000000        3.89120000000000       -3.62528700000000
H           40.78053600000000        4.02037800000000       -1.96668500000000
H           39.02384500000000        2.25000100000000       -1.36689500000000
H           44.43548400000000        0.72840900000000       -0.50684900000000
H           43.08854999999999       -5.31749400000000       -0.20419300000000
H           43.30418699999999       -9.01170800000000        0.22640000000000
H           43.08364899999999       -7.70824200000000       -0.93979400000000
H           41.76832999999999       -8.11190700000000        0.19219600000000
H           43.75701800000000       -8.51656100000000        2.60923600000000
H           45.48786799999999       -6.34080900000000        5.06113500000000
H           45.10022200000000       -8.00674600000000        4.63355000000000
H           43.84265700000000       -6.96346900000000        5.34028900000000
H           44.65543199999999       -4.43638100000000        3.67850500000000
210
 energy: -320.913248737884 gnorm: 0.296803651629 xtb: 6.5.1 (b24c23e)
C           28.20829330767414       -0.01322399868409        0.10088053678819
C           28.90065146419414        1.21357286563738        0.59288409271704
C           28.29808099796720        2.34420736446671        1.14027796813873
C           29.31158660625369        3.28173761631732        1.40971633067407
C           30.53322768581458        2.72508112248382        1.02305402894192
N           30.25723836081975        1.45340114747085        0.56728459577018
C           31.89938718368129        3.38848839135481        1.05048126870435
C           33.06663245447461        2.69213754537033        0.78265733601569
C           34.37065728094452        3.34298077884098        0.73774816657071
C           35.28359421225900        2.41306207431151        0.43102299893410
N           33.26196385334779        1.36211923344061        0.50282716397817
C           34.60799933445190        1.12964851378960        0.28580075721326
C           35.27344859084431       -0.05001665597514        0.00185084835175
C           34.50356577827157       -1.36618186300194       -0.12028501977262
C           35.03165256147422       -2.64683011033196        0.03736493842852
C           34.01015360930127       -3.58649241767589       -0.19599089397506
C           32.84250998785475       -2.88738453836967       -0.49098856721631
C           31.48521824755397       -3.48940658917414       -0.83908251137925
C           31.43264025816304       -4.89166214690226       -1.36087462966759
C           31.05246075640384       -5.96023494921128       -0.53831534383620
C           31.02807077036444       -7.27090288179156       -1.02333595783606
C           30.60228690777845       -8.40607414401152       -0.13227228036863
C           31.36646941117014       -7.51136461023766       -2.35750809101905
C           31.74252760938926       -6.46113100271571       -3.19777272864214
C           32.08091940249837       -6.71892632708923       -4.64086497065333
C           31.76406356347448       -5.15708546836557       -2.69429829696885
C           30.32346567933933       -2.76017193838023       -0.69712304333798
C           28.99633468219793       -3.28002624712229       -1.02462995462597
C           28.10627067563353       -2.31788283149662       -0.75546206860934
C           28.84923961810460       -1.16793532246513       -0.26097061998304
N           30.17362475822711       -1.47824248679347       -0.24857343816611
N           33.15482099133745       -1.54233179223181       -0.40004655770419
C           31.95804040931298        4.86099696754647        1.33500075872241
C           32.24281475955546        5.33575560647201        2.62157697989547
C           32.27644818177654        6.70675106750162        2.89467850602241
C           32.60655320105570        7.19362003259930        4.27954390527691
C           32.04283511386136        7.61476791311311        1.85930889562910
C           31.76028963208583        7.16530893059723        0.56735016178602
C           31.53449027308222        8.14571905156068       -0.55167694661046
C           31.72944868654666        5.79070022491920        0.31332793432850
H           27.12100259005957        0.00752198510553        0.00752653467893
H           27.23809845613111        2.46180993094553        1.31253857366902
H           29.18169448391020        4.26763375252371        1.83098897412214
H           30.95611680049426        0.78826449445271        0.25500448660118
H           34.57176760989472        4.38723188932706        0.90663129684217
H           36.33623132222104        2.59114693454884        0.31832589433785
H           36.05465681189843       -2.86341496128915        0.30098302008204
H           34.09700972133565       -4.66275192844436       -0.14975050702834
H           30.77977506159902       -5.74865087033740        0.49195441687540
H           29.55056307495523       -8.64736656747637       -0.31343980656983
H           31.20153232903870       -9.30022802463130       -0.32307150137712
H           30.71927336579104       -8.14629989734051        0.92253999262963
H           31.33023364831382       -8.52696257779800       -2.74709850830471
H           32.81973098259139       -6.00074641273082       -5.00370179937608
H           32.49607913672842       -7.72031910500731       -4.77753288175035
H           31.18051306623147       -6.63039667930956       -5.25538563050231
H           32.03561351450768       -4.32346288468435       -3.33644651462280
H           28.77184985186626       -4.25571445105225       -1.41769012642966
H           27.03899008300264       -2.37111703479488       -0.88667237223967
H           32.46519263320853       -0.80080706818461       -0.46291657338456
H           32.43859926976529        4.61320487707766        3.40912625284423
H           32.22393263813839        6.50636225537641        5.03793613719807
H           32.16790329630334        8.17599890048344        4.46966392800394
H           33.69104038114520        7.27137789767970        4.39696888498011
H           32.08789661243468        8.68355734037095        2.05933473893577
H           31.12669423443073        9.08787962193495       -0.17749430562161
H           32.48080165037608        8.35562092218894       -1.05820354496685
H           30.82964044654142        7.74709508723371       -1.28508328381301
H           31.53014438103710        5.42091730043774       -0.68891943218979
C           59.07799180438730       -0.05986707622666        0.08823433017472
C           58.38563237308482       -1.36717668594126       -0.10691351733196
C           58.98820107271395       -2.61944786961696       -0.20567863504701
C           57.97468455401226       -3.56467659821946       -0.44676631726648
C           56.75306043991869       -2.88894282244277       -0.49924209513508
N           57.02904557271876       -1.56121678276167       -0.25016662915924
C           55.38688301762899       -3.47530671258226       -0.81074941042839
C           54.21965842318771       -2.73903929124563       -0.69012725461644
C           52.91563235691027       -3.27805600295690       -1.05754971665431
C           52.00272855756188       -2.32051461896600       -0.85238054831731
N           54.02429142289466       -1.44985043450368       -0.25965705352232
C           52.67828163860789       -1.13954518866975       -0.32915728309629
C           52.01284113307111        0.02242266849625        0.02110693732017
C           52.78264594603141        1.21972286538111        0.58063581553525
C           52.25458509798293        2.24514050763193        1.36381923582815
C           53.27610621869824        3.17390785604933        1.63716032758436
C           54.44376391793440        2.71958591200773        1.02940397520686
C           55.80105395682973        3.41496787321566        1.03313692343875
C           55.85363990915513        4.88873302213851        1.29121433066940
C           56.23382520966146        5.39538747437338        2.54090959162775
C           56.25821339254536        6.77153672376347        2.78445660770956
C           56.68399068228990        7.30105421576667        4.12691797657186
C           55.91981490441113        7.65305052586598        1.75451830676734
C           55.54375474893112        7.17116782389794        0.49880699143607
C           55.20536197994848        8.12267234172000       -0.61637457332152
C           55.52221543760975        5.79141250018526        0.27452988987300
C           56.96281337478434        2.71390998628025        0.78724863814078
C           58.28994382538282        3.32800390720830        0.76722074428279
C           59.18001149800296        2.36168485149383        0.51346229394654
C           58.43704775261133        1.11945650328636        0.35928789275181
N           57.11265429399740        1.38099460744808        0.52673978189312
N           54.13144350489291        1.51287991451442        0.42830919342290
C           55.32823679933681       -4.88984330529883       -1.30906510152101
C           55.04346287599834       -5.94952386752834       -0.43857214157139
C           55.00983436484477       -7.27067190653038       -0.89548596069497
C           54.67972483439345       -8.39046183270227        0.05372390408891
C           55.24344519473487       -7.53126515527728       -2.24773131188173
C           55.52599333178930       -6.49070250523854       -3.13565382756286
C           55.75179208080894       -6.77150150941567       -4.59666888514451
C           55.55682992948816       -5.17607314930833       -2.66044623808584
H           60.16528111678730       -0.03061660664417       -0.00281482148427
H           60.04818348541273       -2.80796767241621       -0.11642872570376
H           58.10458278004942       -4.62833594621153       -0.58126508228218
H           56.33016658507642       -0.82943471414640       -0.18364775395754
H           52.71450343443109       -4.26456740258201       -1.43939946492259
H           50.95007545825224       -2.41727509493757       -1.03973254547938
H           51.23159904160740        2.29880527773905        1.70076743333923
H           53.18926738716566        4.07934650803914        2.22079357764152
H           56.50650134845818        4.69231571367863        3.32315828883132
H           57.73571527176782        7.60081607982383        4.09246203013685
H           56.08474539876241        8.16910585070699        4.41396042794722
H           56.56700460472655        6.54399621971713        4.90599967704441
H           55.95604324433836        8.72633864420025        1.93135557015570
H           54.46654562372867        7.68617223661515       -1.29231826998521
H           54.79019996967303        9.05592832540976       -0.22843595046402
H           56.10576830923069        8.35671656173748       -1.19144058386408
H           55.25066469700499        5.39638567527724       -0.70078625766817
H           58.51442786804054        4.36860240722218        0.92090625798491
H           60.24729221572971        2.47391076062814        0.42712208021438
H           54.82107327153221        0.90463701180725       -0.00047017252313
H           54.84768176089578       -5.72380796841393        0.60611662553173
H           55.06234885968921       -8.18047411743710        1.05541786970645
H           55.11837787979101       -9.33431430545240       -0.27847603808284
H           53.59523323401852       -8.51689412547070        0.11578356250986
H           55.19838350055712       -8.55469558571451       -2.61503490066936
H           56.15958669947666       -7.77362787136471       -4.74970544204706
H           54.80548114573656       -6.69676136733109       -5.13984491656000
H           56.45663947392966       -6.05697963883707       -5.02823044728920
H           55.75613622686997       -4.35062942922422       -3.33859184397543
C           37.41031498098445       -0.01006197199843       -0.01733029146773
C           38.65078735253184       -0.02920289083377        0.00137341658446
C           48.63634410844842        0.02338121056287       -0.01781184797298
C           49.87685935736058       -0.00321545287681       -0.01770558930252
C           40.06994065074072       -0.00509884363705        0.06876159556400
C           40.85114737332285       -1.10992139106905        0.79317856794464
C           40.34753817612303       -2.00138237749603        1.73631964472545
C           41.37877225567266       -2.89335093446063        2.09164222741627
C           42.51599538808621       -2.54356295608736        1.36884630194453
N           42.18749607540191       -1.42309567000963        0.63317685304033
C           43.85562734091216       -3.26714308017863        1.36192228911553
C           45.02369481964353       -2.62157750801940        1.01481420089079
C           46.31393965483150       -3.29808587424709        0.94497546449795
C           47.22824390339073       -2.39367730915311        0.57547688971853
N           45.22188567428233       -1.31019895944586        0.67032892553191
C           46.54800847191157       -1.11731676204959        0.40309916652851
C           47.21879129212977        0.04884271981676        0.04813886835942
C           46.43718348631800        1.35870612763136       -0.12231165451541
C           46.93839203215085        2.64964921322164        0.01953311509563
C           45.90739375271528        3.55750958104715       -0.29397048636760
C           44.77287719764778        2.82071564294152       -0.62247623773865
C           43.43387382702929        3.36416598507198       -1.10158325567646
C           43.42002409950712        4.69064735460513       -1.79680430767063
C           42.97672891007014        5.84897001696807       -1.14526934659680
C           42.99997112864060        7.09150192691541       -1.78553898746131
C           42.56949090233176        8.33206567434112       -1.05049295855788
C           43.47356500604344        7.17445006912941       -3.09718889043210
C           43.89569197774409        6.02905714516492       -3.77605402467798
C           44.42935521584474        6.12523703346905       -5.17966940764091
C           43.86865449437158        4.79573907558392       -3.11849712794636
C           42.26587895151158        2.64851716961706       -0.94276645113313
C           40.97581982818769        3.11527156107007       -1.43765738789246
C           40.06133668808526        2.18939244545816       -1.12640978538316
C           40.74113689601707        1.11007613761068       -0.42315686482864