122
 energy: -206.880867356563 gnorm: 6.973429794825 xtb: 6.5.1 (b24c23e)
Cu          13.06569700000000        0.03077200000000       -0.00149800000000
C            9.73115400000000       -0.09539300000000       -0.04315600000000
C           10.39204600000000       -1.25679300000000       -0.04238900000000
C            9.74016100000000       -2.55947400000000        0.00800800000000
C           10.67885500000000       -3.48636400000000       -0.04684700000000
C           11.98374000000000       -2.81835600000000       -0.14610000000000
N           11.80814100000000       -1.40097000000000       -0.13172200000000
C           13.17417800000000       -3.44456200000000       -0.26096300000000
C           13.22542100000000       -4.92521100000000       -0.31024300000000
C           12.75471900000000       -5.58586500000000       -1.37905600000000
C           12.74385900000000       -7.09150500000000       -1.45324800000000
N           13.54752000000000       -7.70896700000000       -0.39512200000000
C           13.99427300000000       -6.98068400000000        0.75320600000000
C           13.84509000000000       -5.65933400000000        0.80983700000000
C           14.46456900000000       -2.71001800000000       -0.33815100000000
C           15.74484900000000       -3.33955100000000       -0.68562600000000
C           16.67935400000000       -2.41208300000000       -0.62534700000000
N           14.61033900000000       -1.44691200000000       -0.07890200000000
C           16.00335500000000       -1.17988100000000       -0.23953600000000
C           16.59936600000000       -0.00020200000000        0.00005600000000
C           15.83534300000000        1.20907800000000        0.37539500000000
C           16.35947600000000        2.27068500000000        0.97532500000000
C           15.31736700000000        3.27653500000000        1.05865200000000
C           14.22743600000000        2.76279700000000        0.49889800000000
N           14.46558200000000        1.43095400000000        0.04133600000000
C           12.95631100000000        3.50355600000000        0.29828500000000
C           12.99553100000000        4.98745000000000        0.30361600000000
C           12.31886400000000        5.68588800000000        1.23063000000000
C           12.29443500000000        7.19294500000000        1.24190800000000
N           13.30122400000000        7.77607000000000        0.35131800000000
C           13.97750700000000        7.00767900000000       -0.64973900000000
C           13.83894700000000        5.68435000000000       -0.68763100000000
C           11.79496700000000        2.85516000000000        0.08473300000000
C           10.49352800000000        3.46815200000000       -0.17673200000000
C            9.63022100000000        2.47390100000000       -0.26112300000000
C           10.37212100000000        1.22896700000000       -0.06902500000000
N           11.63413300000000        1.43904300000000        0.13324700000000
H            8.64792800000000       -0.12038400000000       -0.02834200000000
H            8.67726500000000       -2.75050400000000        0.08113300000000
H           10.48952400000000       -4.55110700000000       -0.02404500000000
H           12.30769100000000       -5.03579000000000       -2.19929600000000
H           13.14116100000000       -7.40759300000000       -2.44150400000000
H           11.69534100000000       -7.44554100000000       -1.36464900000000
H           13.69833500000000       -8.74186100000000       -0.42187800000000
H           14.47601600000000       -7.50549400000000        1.56873300000000
H           14.20428700000000       -5.11731300000000        1.67688100000000
H           15.91225100000000       -4.37617100000000       -0.94777000000000
H           17.73050200000000       -2.56714200000000       -0.82668000000000
H           17.38090600000000        2.38420600000000        1.31362900000000
H           15.42135600000000        4.27176300000000        1.47179500000000
H           11.71925400000000        5.16380100000000        1.96727600000000
H           12.47938500000000        7.54633200000000        2.27800100000000
H           11.28677500000000        7.53649500000000        0.92640000000000
H           13.44390200000000        8.80987400000000        0.36747800000000
H           14.61832500000000        7.50481600000000       -1.36726200000000
H           14.36737700000000        5.11370400000000       -1.44190800000000
H           10.25537900000000        4.51801300000000       -0.28440000000000
H            8.56779700000000        2.57630300000000       -0.44264800000000
Cu          28.22453399999999       -0.03012100000000       -0.00811000000000
C           31.55907700000000        0.10204500000000       -0.02171700000000
C           30.89818600000000        1.23621100000000        0.22831500000000
C           31.55007000000000        2.49771400000000        0.55714500000000
C           30.61137600000000        3.41477500000000        0.70251600000000
C           29.30649100000000        2.78364000000000        0.46219500000000
N           29.48209000000000        1.39620300000000        0.17201000000000
C           28.11605399999999        3.41990500000000        0.48441800000000
C           28.06481100000000        4.87662200000000        0.75409300000000
C           28.53551300000000        5.75128900000000       -0.14800700000000
C           28.54637300000000        7.23776200000000        0.10270100000000
N           27.74271200000000        7.61371700000000        1.26869800000000
C           27.29595800000000        6.65593100000000        2.23394300000000
C           27.44514100000000        5.35322200000000        2.00564000000000
C           26.82566300000000        2.71904800000000        0.25136700000000
C           25.54538300000000        3.40849200000000        0.04711300000000
C           24.61087800000000        2.48970100000000       -0.09308500000000
N           26.67989300000000        1.42973600000000        0.23346000000000
C           25.28687700000000        1.20340800000000        0.01925400000000
C           24.69086600000000       -0.00020200000000        0.00005600000000
C           25.45488900000000       -1.26186100000000        0.10708700000000
C           24.93075600000000       -2.42749400000000        0.46517100000000
C           25.97286500000000       -3.42778700000000        0.33066000000000
C           27.06279600000000       -2.80587700000000       -0.10577800000000
N           26.82464900000000       -1.40686300000000       -0.26681000000000
C           28.33392100000000       -3.48631100000000       -0.46071300000000
C           28.29470100000000       -4.93676500000000       -0.77400900000000
C           28.97136700000000       -5.81789900000000       -0.01851300000000
C           28.99579600000000       -7.29225200000000       -0.33097300000000
N           27.98900800000000       -7.67063000000000       -1.32596800000000
C           27.31272500000000       -6.70528000000000       -2.13876700000000
C           27.45128500000000       -5.40466100000000       -1.89173600000000
C           29.49526500000000       -2.80719100000000       -0.53011600000000
C           30.79670300000000       -3.34977500000000       -0.91705900000000
C           31.66001000000000       -2.36058200000000       -0.78607800000000
C           30.91811100000000       -1.18589600000000       -0.33124300000000
N           29.65609900000000       -1.43449200000000       -0.17877700000000
H           32.64230400000000        0.12327400000000       -0.00188500000000
H           32.61296700000000        2.66859600000000        0.66956900000000
H           30.80070800000000        4.44980800000000        0.95332300000000
H           28.98254100000000        5.39009100000000       -1.06719700000000
H           28.14907100000000        7.75860300000000       -0.79467700000000
H           29.59489100000000        7.56453000000000        0.26522600000000
H           27.59189700000000        8.62828000000000        1.46426600000000
H           26.81421600000000        6.99346400000000        3.14310800000000
H           27.08594500000000        4.63773100000000        2.73613700000000
H           25.37798100000000        4.47721700000000        0.01357900000000
H           23.55973000000000        2.68436100000000       -0.25644300000000
H           23.90932600000000       -2.61098300000000        0.77122400000000
H           25.86887600000000       -4.48849600000000        0.52055900000000
H           29.57097800000000       -5.46609400000000        0.81302500000000
H           28.81084600000000       -7.85978900000000        0.60512100000000
H           30.00345600000000       -7.56007400000000       -0.71286700000000
H           27.84633000000000       -8.68380700000000       -1.53208100000000
H           26.67190700000000       -7.03682200000000       -2.94627200000000
H           26.92285500000000       -4.68541700000000       -2.50595000000000
H           31.03485299999999       -4.35205700000000       -1.24756000000000
H           32.72243500000000       -2.42163500000000       -0.98535100000000
C           21.24903600000000        0.00110900000000        0.00848800000000
C           20.04009700000000       -0.01234600000000        0.00004100000000
C           18.61856800000000       -0.00352700000000       -0.01194200000000
C           17.40689800000000        0.00391200000000       -0.00107900000000
C           22.66564000000000       -0.00556600000000        0.00902100000000
C           23.88633600000000        0.00391200000000       -0.00107900000000
122
 energy: -208.814365095879 gnorm: 0.913815084026 xtb: 6.5.1 (b24c23e)
Cu          13.06726264628241        0.03069465662799       -0.00140024205815
C            9.73138812159268       -0.09052324120533       -0.04324842805736
C           10.39479125871545       -1.25847353269236       -0.04236831503856
C            9.73934855904576       -2.55766669502445        0.00800897845187
C           10.68121287855071       -3.48727461453089       -0.04690869758172
C           11.98226504771062       -2.81624152538473       -0.14580423210685
N           11.80373018042730       -1.40488847736050       -0.13207495672403
C           13.17833657065213       -3.44376571178040       -0.26110652649713
C           13.22607764558060       -4.92545462703215       -0.30989748856027
C           12.75480357614010       -5.58587168697224       -1.37816920493050
C           12.74397569700040       -7.09185324485583       -1.45323835617318
N           13.54930706174755       -7.70932770180843       -0.39240026852477
C           13.99301961415295       -6.98254166542506        0.75018635664312
C           13.84470231197163       -5.65785906425355        0.80916292105010
C           14.46237946602230       -2.71627609697442       -0.33876308738435
C           15.74080293994780       -3.34234355246604       -0.68527823473881
C           16.68006201762073       -2.40786273260146       -0.62462441790451
N           14.61191025174199       -1.44581857403381       -0.07944765009390
C           15.98379386042096       -1.19127217657435       -0.24166457618396
C           16.41064024374714        0.00275792177937        0.00209097052115
C           15.81901653847415        1.21069215575759        0.37432601780829
C           16.35974477130173        2.27546514575561        0.97708378722208
C           15.32282362862390        3.27693514096328        1.06001533925731
C           14.22295524686923        2.76091818172505        0.49610742678712
N           14.46612587491783        1.43351716499460        0.04304104499637
C           12.95953562821038        3.50235419266676        0.29835138878960
C           12.99641912503482        4.98731592221485        0.30344925455382
C           12.31913253446449        5.68574485911334        1.22967773290737
C           12.29459968806684        7.19325507781315        1.24191386284925
N           13.30353246196744        7.77629822842217        0.34898700043613
C           13.97559156859414        7.00960274074673       -0.64710691029339
C           13.83837977156775        5.68287882909332       -0.68699748287960
C           11.79397324148659        2.85470962941430        0.08448359893455
C           10.49582825012398        3.46899552576900       -0.17639644609233
C            9.62827779151734        2.47116289041663       -0.26122156227152
C           10.36705221101564        1.22602824589748       -0.06928894705047
N           11.63573908036177        1.44173924516688        0.13344598001820
H            8.64796144012488       -0.12004473516248       -0.02846626808303
H            8.67729353698649       -2.74980953743379        0.08114388482556
H           10.49032773429106       -4.55114768557445       -0.02409229472873
H           12.30775192797758       -5.03617437175522       -2.19943502172456
H           13.14084875438764       -7.40767915773344       -2.44089325321820
H           11.69561613962309       -7.44563115933770       -1.36498662339982
H           13.69778533391198       -8.73914211015250       -0.42176881577739
H           14.47581597586506       -7.50629933662369        1.56802721773682
H           14.20413021057496       -5.11710704823575        1.67666489537150
H           15.91159322158659       -4.37629883817487       -0.94770627538935
H           17.73043569574457       -2.56615434698924       -0.82647752953705
H           17.38081482396060        2.38419672581806        1.31369246948524
H           15.42160781650210        4.27156073666761        1.47188718087715
H           11.71927165269561        5.16419392410239        1.96741614988386
H           12.47920324944604        7.54642454860855        2.27737736442045
H           11.28699996893476        7.53657618928883        0.92676897251633
H           13.44338448553889        8.80717207036923        0.36738311922830
H           14.61798616854299        7.50562801147188       -1.36662739314164
H           14.36719746980167        5.11349261071406       -1.44171865693925
H           10.25615462926697        4.51795463210165       -0.28430251343482
H            8.56775136951805        2.57569493662659       -0.44264302202952
Cu          28.22297310050761       -0.03006529345425       -0.00799674305979
C           31.55884395705118        0.09730449387328       -0.02285315243586
C           30.89543836994340        1.23785054888269        0.22869728009966
C           31.55088285062606        2.49594706957948        0.55675736840247
C           30.60901571459683        3.41567762926283        0.70265202018141
C           29.30796593919775        2.78151683974819        0.46203181920953
N           29.48650335979160        1.40010333735716        0.17250168498358
C           28.11189760015424        3.41915823130519        0.48410692100387
C           28.06415442442178        4.87678518208237        0.75448251808811
C           28.53542844502114        5.75110515638295       -0.14713935689247
C           28.54625624423128        7.23810001316026        0.10278519157478
N           27.74092500595149        7.61348530863814        1.27143350765261
C           27.29721138268632        6.65839309331012        2.23139255380516
C           27.44552872513480        5.35192616993874        2.00466501549135
C           26.82783946659391        2.72531853218886        0.25211358280099
C           25.54945188886093        3.41115290480662        0.04805889614100
C           24.61017333467591        2.48539043223270       -0.09328086554240
N           26.67832637309198        1.42878482134181        0.23269695384083
C           25.30653860758060        1.21506071469260        0.01956508689665
C           24.88202335653806       -0.00490544951506        0.00113840772557
C           25.47136187000114       -1.26332068785485        0.10566198976369
C           24.93048001764963       -2.43252616869226        0.46586768293340
C           25.96741660632748       -3.42846951539021        0.33190552282375
C           27.06726887744999       -2.80344471526379       -0.10809654563207
N           26.82410671601682       -1.40973684591933       -0.26570432142788
C           28.33070423056155       -3.48515167648167       -0.46039105805929
C           28.29381247835058       -4.93659782535150       -0.77414335849782
C           28.97109843050922       -5.81755473904099       -0.01941229410162
C           28.99563141798239       -7.29255603444648       -0.33103388726663
N           27.98669947634593       -7.67035253244200       -1.32829367036320
C           27.31464040588469       -6.70772395172858       -2.13660918477138
C           27.45185207204050       -5.40336019205679       -1.89080146297685
C           29.49625500249644       -2.80670034960069       -0.53026272063418
C           30.79440496231102       -3.35067062935183       -0.91691279768890
C           31.66195276870215       -2.35788854145276       -0.78558735767455
C           30.92318022009875       -1.18296606407278       -0.33086953773256
N           29.65449290409935       -1.43716706799625       -0.17915791563431
H           32.64227054395836        0.12296924198038       -0.00207950350176
H           32.61293842090173        2.66791524658422        0.66943065042740
H           30.79990424396856        4.44985791756135        0.95328550793434
H           28.98248008492290        5.39049624877801       -1.06725032218478
H           28.14938325333307        7.75855607851845       -0.79406200008000
H           29.59461587088357        7.56469051906253        0.26491558469046
H           27.59244667323055        8.62560107392393        1.46378905496992
H           26.81441600887929        6.99440207619960        3.14259157385838
H           27.08610174008567        4.63757622753931        2.73588168174947
H           25.37863924146127        4.47732802742514        0.01366822796664
H           23.55979576199691        2.68334984362305       -0.25645815454484
H           23.90941428481500       -2.61098299178265        0.77128622507700
H           25.86862331303067       -4.48831726811237        0.52069271347978
H           29.57096032189936       -5.46650784453806        0.81307749984140
H           28.81102774499358       -7.85974553183341        0.60449204451455
H           30.00323103351375       -7.56023251861823       -0.71252406155034
H           27.84684751236753       -8.68114772117985       -1.53159374114401
H           26.67224584360249       -7.03775131826648       -2.94582651573202
H           26.92303451265923       -4.68525119575008       -2.50571976219376
H           31.03407744477052       -4.35202096566546       -1.24745235618519
H           32.72248056231447       -2.42104227012529       -0.98521566879482
C           21.25546501793796        0.00122414077947        0.00849235753642
C           20.03355980896981       -0.01239410038798       -0.00001652715171
C           18.65973637328997       -0.00293318529291       -0.01179593058261
C           17.59091478616736        0.00847789318202       -0.00208797945578
C           22.62593876451156       -0.00633722102382        0.00934709883579
C           23.69826126109929        0.00118150678937       -0.00307968782944
122
 energy: -209.026640063993 gnorm: 0.537286454413 xtb: 6.5.1 (b24c23e)
Cu          13.07051351061747        0.02686845580594       -0.00219752000829
C            9.73248588297107       -0.07598808546561       -0.04375424266875
C           10.39892470411836       -1.25959691656178       -0.04224524751294
C            9.73913177776225       -2.55221096362622        0.00797464219216
C           10.68909383569543       -3.48907754621136       -0.04759100980561
C           11.98040340036351       -2.81302282022207       -0.14518075347786
N           11.78498610519915       -1.42305725551298       -0.13152776841495
C           13.18820774184773       -3.44451864757584       -0.26032443347598
C           13.23058128572700       -4.92562950118235       -0.30896643037565
C           12.75474680864837       -5.58712149510145       -1.37281078024928
C           12.74605434431019       -7.09387500058325       -1.44961041525768
N           13.55592825045334       -7.70742255617587       -0.38414429464946
C           13.98789487062868       -6.98670358673945        0.73889761983663
C           13.84361407055751       -5.65440941407945        0.80477582799000
C           14.44845883303977       -2.74387021950053       -0.33982360679422
C           15.72704409530836       -3.35585810585542       -0.68486435829360
C           16.66940634983896       -2.40532279970693       -0.62321013792192
N           14.59468636654469       -1.46396966666551       -0.08666476051967
C           15.93687698416978       -1.21621788022193       -0.24928078273348
C           16.34838686520680        0.01848785159770        0.00691150221071
C           15.77212373134566        1.22161684635604        0.37386410434406
C           16.35384137798157        2.29867562835532        0.98158205101130
C           15.34007596071500        3.28202470018325        1.06226711963399
C           14.21128017285930        2.76114613374886        0.48725909116710
N           14.44803743506901        1.45142721241280        0.05284020981901
C           12.97134218228417        3.49703353551441        0.29574803688714
C           13.00372043865158        4.98335351297434        0.30438067393649
C           12.32069272585042        5.68488854710868        1.22337562631506
C           12.29785514310076        7.19423998737076        1.23868335358866
N           13.31163688789224        7.77381416230420        0.34225649736132
C           13.96761410198561        7.01354335962055       -0.63728103049343
C           13.83613909215643        5.67874865120640       -0.68276298921111
C           11.79275438024960        2.85428363565882        0.08319968106963
C           10.50165633726908        3.46719633192850       -0.17471001905418
C            9.61997635666911        2.46136355711110       -0.26108235372562
C           10.34947308024406        1.21970001441147       -0.06848364156989
N           11.63339713005770        1.45272728064048        0.13058466254497
H            8.64872552684996       -0.11501529040678       -0.02971892611099
H            8.67738427263827       -2.74252961201320        0.08112571087434
H           10.49919115116744       -4.55219581304854       -0.02453696629225
H           12.30910930954500       -5.04069771887776       -2.19934163047887
H           13.13895597760909       -7.40922312811520       -2.43564122490850
H           11.69829743532199       -7.44731122198083       -1.36748299755150
H           13.69509654085573       -8.72335485711906       -0.41892956137280
H           14.47227318762097       -7.51356491297003        1.55821766377401
H           14.20240455494237       -5.11557735890829        1.67404638691829
H           15.90547924385603       -4.38274304647323       -0.94770904458598
H           17.72507635919450       -2.55521722417807       -0.82376182919325
H           17.37830035928853        2.38602121042416        1.31506744636677
H           15.42722056350301        4.27272266280847        1.47473462235873
H           11.72060426657439        5.16856988645051        1.96731743534620
H           12.47843509006825        7.54784153991777        2.27195735621073
H           11.28955509045661        7.53796631745829        0.92956523762343
H           13.44132912180378        8.79125126040788        0.36485082817486
H           14.61239117303490        7.51287302224266       -1.35775502901931
H           14.36525064797722        5.11189411488647       -1.43945820516004
H           10.26458262859797        4.51677516708768       -0.28324933491679
H            8.56386828699955        2.56954257517160       -0.44300322795193
Cu          28.21969423953218       -0.02613397393819       -0.00794913829758
C           31.55774442331523        0.08321174801964       -0.02646373759218
C           30.89130307273683        1.23892303075662        0.22906279353421
C           31.55109931456310        2.49062424543658        0.55555698070345
C           30.60113312100646        3.41758517429392        0.70237523864770
C           29.30982961479221        2.77823949169995        0.46195310430754
N           29.50525057874933        1.41773432736083        0.17694803182375
C           28.10201974482312        3.41972731491784        0.48504430580012
C           28.05965505233545        4.87675798689476        0.75543342769773
C           28.53548640472206        5.75117654279097       -0.14163478955724
C           28.54417755578835        7.23929633659870        0.10676538207743
N           27.73430340372549        7.60985200643128        1.27909119983041
C           27.30233576637423        6.66488046704056        2.22126314599647
C           27.44661727643863        5.34949812665480        1.99964241097936
C           26.84173892726563        2.75252469038765        0.25703081615849
C           25.56320052255501        3.42429759843690        0.05138307263853
C           24.62072362191311        2.48277315913682       -0.09248712587867
N           26.69532280050970        1.44813882221723        0.22953401058930
C           25.35278249283650        1.24123125644029        0.01722497180423
C           24.94240702778814       -0.02020344003563        0.00121966276149
C           25.51782752947231       -1.27375204183256        0.10258543017158
C           24.93630920137636       -2.45618868685714        0.46523935806937
C           25.95013077952112       -3.43389471245185        0.33304129139946
C           27.07893746195621       -2.80172901294224       -0.11677743574752
N           26.84213866157186       -1.42930946682866       -0.25992509960138
C           28.31888964357807       -3.47938903360639       -0.46178602085591
C           28.28650874855654       -4.93292609049514       -0.77237939821709
C           28.96953717542819       -5.81536517359925       -0.02538060329324
C           28.99237590345580       -7.29282456275293       -0.33439764343943
N           27.97859488011539       -7.66648150912201       -1.33433158639714
C           27.32261837818220       -6.71368267452702       -2.12785557791767
C           27.45409283864815       -5.40023505709865       -1.88577628107663
C           29.49747397301973       -2.80600197858587       -0.53141930653417
C           30.78857921240834       -3.34927635185793       -0.91487382027353
C           31.67025517231959       -2.34834948100692       -0.78334430216075
C           30.94075962000864       -1.17695648596468       -0.32871883592021
N           29.65683108880954       -1.44728309247631       -0.18431096845313
H           32.64150546150078        0.11832439082844       -0.00437891365100
H           32.61284701212340        2.66080775253403        0.66785480908827
H           30.79104060844046        4.45097666052258        0.95308029083047
H           28.98112352820461        5.39489375446669       -1.06618499215731
H           28.15127664985541        7.75893665680554       -0.78859789638226
H           29.59193447028661        7.56686656936501        0.26284145975481
H           27.59513531750088        8.60957233557584        1.46317641548408
H           26.81795782653143        7.00360347453638        3.13457248969237
H           27.08782661629271        4.63664401738698        2.73299809777998
H           25.38476245851989        4.48364250035825        0.01505852065822
H           23.56510945337140        2.67216701631781       -0.25618011011501
H           23.91190104663951       -2.61309340484918        0.77223669413276
H           25.86301010360163       -4.49005151923729        0.52323455734929
H           29.56962693962895       -5.47076081804768        0.81204483147620
H           28.81179534623742       -7.85996636832324        0.59889718335687
H           30.00067596330651       -7.56219083588612       -0.71008788474987
H           27.84890310921471       -8.66505474814186       -1.53064721261739
H           26.67784181763941       -7.04673214419422       -2.93871377003878
H           26.92498209450546       -4.68417537282754       -2.50316696239496
H           31.02564994310158       -4.35109556409445       -1.24616672637803
H           32.72636401526090       -2.41495745629736       -0.98424239222521
C           21.22978314429077        0.00102449195598        0.00879393503129
C           20.05905727021257       -0.01230608374190        0.00027237972313
C           18.78999048437198        0.00147364942136       -0.01104914041397
C           17.55984885071038        0.02724118933739       -0.00370739917951
C           22.49951335034781       -0.01203111244061        0.01346183735101
C           23.72929448280860       -0.01752204695271       -0.01043689898247
122
 energy: -209.111648127369 gnorm: 0.352791159903 xtb: 6.5.1 (b24c23e)
Cu          13.06920495191833        0.01870149053351       -0.00416656902776
C            9.73229369968619       -0.06070095976646       -0.04417165618596
C           10.39819732574387       -1.26144144960142       -0.04159709715307
C            9.73820898143151       -2.54658378141185        0.00783626555346
C           10.69549770282099       -3.49119744604588       -0.04712673186556
C           11.97357133676103       -2.81479110196738       -0.14314296891324
N           11.76072673393247       -1.44652573928569       -0.13360336028658
C           13.19086849239364       -3.45382987462100       -0.25886109848692
C           13.23224162054450       -4.93024470401235       -0.30762725765373
C           12.75195242140393       -5.59238888016084       -1.36636560316927
C           12.74759288071396       -7.09694471138996       -1.44447151095074
N           13.56265416696075       -7.69940027569707       -0.37745879071997
C           13.98189376987734       -6.98856261611153        0.72416404690731
C           13.84333063078391       -5.65163817905008        0.79927051293853