      -----------------------------------------------------------      
     |                   =====================                   |     
     |                           x T B                           |     
     |                   =====================                   |     
     |                         S. Grimme                         |     
     |          Mulliken Center for Theoretical Chemistry        |     
     |                    University of Bonn                     |     
      -----------------------------------------------------------      

   * xtb version 6.5.1 (b24c23e) compiled by 'conda@728c89f4b128' on 2022-07-12

   xtb is free software: you can redistribute it and/or modify it under
   the terms of the GNU Lesser General Public License as published by
   the Free Software Foundation, either version 3 of the License, or
   (at your option) any later version.
   
   xtb is distributed in the hope that it will be useful,
   but WITHOUT ANY WARRANTY; without even the implied warranty of
   MERCHANTABILITY or FITNESS FOR A PARTICULAR PURPOSE.  See the
   GNU Lesser General Public License for more details.
   
   Cite this work as:
   * C. Bannwarth, E. Caldeweyher, S. Ehlert, A. Hansen, P. Pracht,
     J. Seibert, S. Spicher, S. Grimme, WIREs Comput. Mol. Sci., 2020, 11,
     e01493. DOI: 10.1002/wcms.1493
   
   for GFN2-xTB:
   * C. Bannwarth, S. Ehlert and S. Grimme., J. Chem. Theory Comput., 2019,
     15, 1652-1671. DOI: 10.1021/acs.jctc.8b01176
   for GFN1-xTB:
   * S. Grimme, C. Bannwarth, P. Shushkov, J. Chem. Theory Comput., 2017,
     13, 1989-2009. DOI: 10.1021/acs.jctc.7b00118
   for GFN0-xTB:
   * P. Pracht, E. Caldeweyher, S. Ehlert, S. Grimme, ChemRxiv, 2019, preprint.
     DOI: 10.26434/chemrxiv.8326202.v1
   for GFN-FF:
   * S. Spicher and S. Grimme, Angew. Chem. Int. Ed., 2020, 59, 15665-15673.
     DOI: 10.1002/anie.202004239
   
   for ALPB and GBSA implicit solvation:
   * S. Ehlert, M. Stahn, S. Spicher, S. Grimme, J. Chem. Theory Comput.,
     2021, 17, 4250-4261. DOI: 10.1021/acs.jctc.1c00471
   
   for DFT-D4:
   * E. Caldeweyher, C. Bannwarth and S. Grimme, J. Chem. Phys., 2017,
     147, 034112. DOI: 10.1063/1.4993215
   * E. Caldeweyher, S. Ehlert, A. Hansen, H. Neugebauer, S. Spicher,
     C. Bannwarth and S. Grimme, J. Chem. Phys., 2019, 150, 154122.
     DOI: 10.1063/1.5090222
   * E. Caldeweyher, J.-M. Mewes, S. Ehlert and S. Grimme, Phys. Chem. Chem. Phys.
     2020, 22, 8499-8512. DOI: 10.1039/D0CP00502A
   
   for sTDA-xTB:
   * S. Grimme and C. Bannwarth, J. Chem. Phys., 2016, 145, 054103.
     DOI: 10.1063/1.4959605
   
   in the mass-spec context:
   * V. Asgeirsson, C. Bauer and S. Grimme, Chem. Sci., 2017, 8, 4879.
     DOI: 10.1039/c7sc00601b
   * J. Koopman and S. Grimme, ACS Omega 2019, 4, 12, 15120-15133.
     DOI: 10.1021/acsomega.9b02011
   
   for metadynamics refer to:
   * S. Grimme, J. Chem. Theory Comput., 2019, 155, 2847-2862
     DOI: 10.1021/acs.jctc.9b00143
   
   for SPH calculations refer to:
   * S. Spicher and S. Grimme, J. Chem. Theory Comput., 2021, 17, 1701-1714
     DOI: 10.1021/acs.jctc.0c01306
   
   with help from (in alphabetical order)
   P. Atkinson, C. Bannwarth, F. Bohle, G. Brandenburg, E. Caldeweyher
   M. Checinski, S. Dohm, S. Ehlert, S. Ehrlich, I. Gerasimov, C. Hölzer
   A. Katbashev, J. Koopman, C. Lavigne, S. Lehtola, F. März, M. Müller,
   F. Musil, H. Neugebauer, J. Pisarek, C. Plett, P. Pracht, F. Pultar,
   J. Seibert, P. Shushkov, S. Spicher, M. Stahn, M. Steiner, T. Strunk,
   J. Stückrath, T. Rose, and J. Unsleber
   
 * started run on 2022/07/30 at 15:16:55.799     

           -------------------------------------------------
          |                Calculation Setup                |
           -------------------------------------------------

          program call               : xtb Zn_Ph2OMe_C6_4.xyz --gfn 1 --opt -T 48
          hostname                   : cx3-15-13.cx3.hpc.ic.ac.uk
          coordinate file            : Zn_Ph2OMe_C6_4.xyz
          omp threads                :                     1

   ID    Z sym.   atoms
    1   30 Zn     1, 73, 163, 234
    2    6 C      2-6, 8-11, 13-21, 23-27, 29-33, 36, 37, 39-43, 45, 74-78,
                  80-83, 85-93, 95-99, 101-105, 108, 109, 111-115, 117,
                  145-162, 164-168, 170-173, 175-183, 185-189, 191-195, 198,
                  199, 201-205, 207, 235-239, 241-244, 246-254, 256-260,
                  262-266, 269, 270, 272-276, 278
    3    7 N      7, 12, 34, 35, 79, 84, 106, 107, 169, 174, 196, 197, 240,
                  245, 267, 268
    4    8 O      22, 28, 38, 44, 94, 100, 110, 116, 184, 190, 200, 206, 255,
                  261, 271, 277
    5    1 H      46-72, 118-144, 208-233, 279-304

molecular fragmentation (1/2 indicates fragments):
111111111111111111111111111111111111111111111111111111111111111111111111
222222222222222222222222222222222222222222222222222222222222222222222222
222222222222222222222222222222222222222222222222222222222222222222222222
222222222222222222222222222222222222222222222222222222222222222222222222
2222222222222222
# atoms in fragment 1/2:    72   232
 fragment masses (1/2) :      645.00     2149.19
CMA distance (Bohr)    :  60.249
constraining FC (au)   :  0.0500
########################################################################
[WARNING] Please study the warnings concerning your input carefully
-1- prog_main_parseArguments: Unknown option '-T' provided
########################################################################

           -------------------------------------------------
          |                 G F N 1 - x T B                 |
           -------------------------------------------------

        Reference                      10.1021/acs.jctc.7b00118
      * Hamiltonian:
        H0-scaling (s, p, d)           1.850000    2.250000    2.000000
        zeta-weighting                 0.000000
      * Dispersion:
        s8                             2.400000
        a1                             0.630000
        a2                             5.000000
        s9                             0.000000
      * Repulsion:
        kExp                           1.500000
        rExp                           1.000000
      * Coulomb:
        alpha                          2.000000
        third order                    atomic
        anisotropic                    false
      * Halogen bond correction:
        rad-scale                      1.300000
        damping                        0.440000


          ...................................................
          :                      SETUP                      :
          :.................................................:
          :  # basis functions                1004          :
          :  # atomic orbitals                1004          :
          :  # shells                          608          :
          :  # electrons                       938          :
          :  # halogen bonds                     0          :
          :  max. iterations                   250          :
          :  Hamiltonian                  GFN1-xTB          :
          :  restarted?                      false          :
          :  GBSA solvation                  false          :
          :  PC potential                    false          :
          :  electronic temp.          300.0000000     K    :
          :  accuracy                    1.0000000          :
          :  -> integral cutoff          0.2500000E+02      :
          :  -> integral neglect         0.1000000E-07      :
          :  -> SCF convergence          0.1000000E-05 Eh   :
          :  -> wf. convergence          0.2000000E-04 e    :
          :  Broyden damping             0.4000000          :
          ...................................................

 iter      E             dE          RMSdq      gap      omega  full diag
   1   -534.6827103 -0.534683E+03  0.100E+01    0.64       0.0  T
   2   -535.5360297 -0.853319E+00  0.600E+00    0.50       1.0  T
   3   -534.0302276  0.150580E+01  0.180E+00    0.44       1.0  T
   4   -535.3577499 -0.132752E+01  0.687E-01    0.59       1.0  T
   5   -535.6729712 -0.315221E+00  0.240E-01    0.57       1.0  T
   6   -535.7202133 -0.472421E-01  0.851E-02    0.57       1.0  T
   7   -535.7255466 -0.533327E-02  0.280E-02    0.58       1.0  T
   8   -535.7259481 -0.401517E-03  0.151E-02    0.56       1.0  T
   9   -535.7261649 -0.216805E-03  0.499E-03    0.57       1.1  T
  10   -535.7261753 -0.104142E-04  0.255E-03    0.57       2.3  T
  11   -535.7261768 -0.146782E-05  0.127E-03    0.57       4.5  T
  12   -535.7261771 -0.318826E-06  0.736E-04    0.57       7.8  T
  13   -535.7261773 -0.232315E-06  0.228E-04    0.57      25.2  T
  14   -535.7261774 -0.477351E-07  0.892E-05    0.57      64.3  T
  15   -535.7261774 -0.472085E-08  0.300E-05    0.57     191.0  T

   *** convergence criteria satisfied after 15 iterations ***

         #    Occupation            Energy/Eh            Energy/eV
      -------------------------------------------------------------
         1        2.0000           -0.7964136             -21.6715
       ...           ...                  ...                  ...
       463        2.0000           -0.3790902             -10.3156
       464        2.0000           -0.3778121             -10.2808
       465        2.0000           -0.3760956             -10.2341
       466        2.0000           -0.3715673             -10.1109
       467        2.0000           -0.3666809              -9.9779
       468        2.0000           -0.3616920              -9.8421
       469        2.0000           -0.3486671              -9.4877 (HOMO)
       470        0.0000           -0.3277215              -8.9178 (LUMO)
       471                         -0.3173665              -8.6360
       472                         -0.3158100              -8.5936
       473                         -0.3139215              -8.5422
       474                         -0.3126282              -8.5070
       ...                                ...                  ...
      1004                          2.7283877              74.2432
      -------------------------------------------------------------
                  HL-Gap            0.0209457 Eh            0.5700 eV
             Fermi-level           -0.3381943 Eh           -9.2027 eV

 SCC (total)                   0 d,  0 h,  0 min,  6.732 sec
 SCC setup                      ...        0 min,  0.024 sec (  0.358%)
 Dispersion                     ...        0 min,  0.014 sec (  0.215%)
 classical contributions        ...        0 min,  0.004 sec (  0.067%)
 integral evaluation            ...        0 min,  0.371 sec (  5.513%)
 iterations                     ...        0 min,  5.418 sec ( 80.482%)
 molecular gradient             ...        0 min,  0.829 sec ( 12.309%)
 printout                       ...        0 min,  0.071 sec (  1.057%)

         :::::::::::::::::::::::::::::::::::::::::::::::::::::
         ::                     SUMMARY                     ::
         :::::::::::::::::::::::::::::::::::::::::::::::::::::
         :: total energy            -527.404576259305 Eh    ::
         :: gradient norm              2.006398507621 Eh/a0 ::
         :: HOMO-LUMO gap              0.569960463128 eV    ::
         ::.................................................::
         :: SCC energy              -535.726177399868 Eh    ::
         :: -> electrostatic           0.861019405141 Eh    ::
         :: repulsion energy           8.582837592893 Eh    ::
         :: dispersion energy         -0.261236452330 Eh    ::
         :: halogen bond corr.         0.000000000000 Eh    ::
         :: add. restraining           0.000000000000 Eh    ::
         :: total charge              -0.000000000702 e     ::
         :::::::::::::::::::::::::::::::::::::::::::::::::::::

      ----------------------------------------------------------- 
     |                   =====================                   |
     |                        A N C O P T                        |
     |                   =====================                   |
     |               Approximate Normal Coordinate               |
     |                Rational Function Optimizer                |
      ----------------------------------------------------------- 

          ...................................................
          :                      SETUP                      :
          :.................................................:
          :   optimization level            normal          :
          :   max. optcycles                   912          :
          :   ANC micro-cycles                  20          :
          :   degrees of freedom               906          :
          :.................................................:
          :   RF solver                   davidson          :
          :   write xtbopt.log                true          :
          :   linear?                        false          :
          :   energy convergence         0.5000000E-05 Eh   :
          :   grad. convergence          0.1000000E-02 Eh/α :
          :   maximium RF displ.         1.0000000          :
          :   Hlow (freq-cutoff)         0.1000000E-01      :
          :   Hmax (freq-cutoff)         5.0000000          :
          :   S6 in model hess.         20.0000000          :
          ...................................................

generating ANC from model Hessian ...
Using Lindh-Hessian (1995)
 Shifting diagonal of input Hessian by    1.0098275562672170E-002
 Lowest  eigenvalues of input Hessian
    0.010000    0.010071    0.010075    0.010077    0.010081    0.010084
    0.010089    0.010091    0.010092    0.010093    0.010094    0.000000
    0.000000    0.000000    0.000000    0.000000    0.000000    0.010105
 Highest eigenvalues
    2.698163    2.701608    3.553263    3.553851    3.711373    3.711630


........................................................................
.............................. CYCLE    1 ..............................
........................................................................
   1   -535.7261774 -0.535726E+03  0.117E-05    0.57       0.0  T
   2   -535.7261774  0.329692E-10  0.116E-05    0.57     494.6  T
   3   -535.7261774 -0.113801E-09  0.291E-06    0.57    1972.4  T
     SCC iter.                  ...        0 min,  1.094 sec
     gradient                   ...        0 min,  0.833 sec
 * total energy  :  -527.4045763 Eh     change       -0.5960601E-09 Eh
   gradient norm :     2.0063987 Eh/α   predicted     0.0000000E+00 (-100.00%)
   displ. norm   :     0.5777438 α      lambda       -0.1080624E+01
   maximum displ.:     0.1883490 α      in ANC's #906, #905, #746, ...

........................................................................
.............................. CYCLE    2 ..............................
........................................................................
   1   -535.8197979 -0.535820E+03  0.167E-01    0.81       0.0  T
   2   -535.8264938 -0.669589E-02  0.102E-01    0.82       1.0  T
   3   -535.8305575 -0.406371E-02  0.318E-02    0.83       1.0  T
   4   -535.8305998 -0.423789E-04  0.230E-02    0.82       1.0  T
   5   -535.8307290 -0.129157E-03  0.123E-02    0.83       1.0  T
   6   -535.8308074 -0.783781E-04  0.288E-03    0.83       2.0  T
   7   -535.8308128 -0.537277E-05  0.870E-04    0.83       6.6  T
   8   -535.8308132 -0.453238E-06  0.307E-04    0.83      18.7  T
   9   -535.8308133 -0.460964E-07  0.110E-04    0.83      52.1  T
  10   -535.8308133 -0.499915E-08  0.603E-05    0.83      95.1  T
     SCC iter.                  ...        0 min,  3.607 sec
     gradient                   ...        0 min,  0.819 sec
 * total energy  :  -528.0464517 Eh     change       -0.6418754E+00 Eh
   gradient norm :     0.5965232 Eh/α   predicted    -0.7206708E+00 (  12.28%)
   displ. norm   :     0.5665020 α      lambda       -0.2574537E+00
   maximum displ.:     0.1318690 α      in ANC's #286, #746, #230, ...

........................................................................
.............................. CYCLE    3 ..............................
........................................................................
   1   -535.8806277 -0.535881E+03  0.117E-01    0.78       0.0  T
   2   -535.8842847 -0.365708E-02  0.719E-02    0.79       1.0  T
   3   -535.8865606 -0.227590E-02  0.279E-02    0.80       1.0  T
   4   -535.8866932 -0.132540E-03  0.196E-02    0.79       1.0  T
   5   -535.8868144 -0.121168E-03  0.940E-03    0.80       1.0  T
   6   -535.8868776 -0.632665E-04  0.272E-03    0.79       2.1  T
   7   -535.8868833 -0.566141E-05  0.604E-04    0.80       9.5  T
   8   -535.8868835 -0.183968E-06  0.335E-04    0.80      17.1  T
   9   -535.8868836 -0.841356E-07  0.157E-04    0.80      36.6  T
  10   -535.8868836 -0.219147E-07  0.357E-05    0.80     160.6  T
     SCC iter.                  ...        0 min,  3.598 sec
     gradient                   ...        0 min,  0.820 sec
 * total energy  :  -528.2459385 Eh     change       -0.1994869E+00 Eh
   gradient norm :     0.3253545 Eh/α   predicted    -0.1700385E+00 ( -14.76%)
   displ. norm   :     0.6874852 α      lambda       -0.1611717E+00
   maximum displ.:     0.1788968 α      in ANC's #286, #230, #200, ...

........................................................................
.............................. CYCLE    4 ..............................
........................................................................
   1   -535.9670828 -0.535967E+03  0.120E-01    0.81       0.0  T
   2   -535.9701241 -0.304129E-02  0.736E-02    0.83       1.0  T
   3   -535.9724305 -0.230641E-02  0.289E-02    0.83       1.0  T
   4   -535.9726993 -0.268770E-03  0.217E-02    0.83       1.0  T
   5   -535.9729208 -0.221562E-03  0.904E-03    0.83       1.0  T
   6   -535.9729677 -0.468968E-04  0.267E-03    0.83       2.1  T
   7   -535.9729737 -0.595356E-05  0.921E-04    0.83       6.2  T
   8   -535.9729744 -0.731189E-06  0.415E-04    0.83      13.8  T
   9   -535.9729746 -0.154540E-06  0.137E-04    0.83      41.9  T
  10   -535.9729746 -0.926957E-08  0.422E-05    0.83     136.0  T
     SCC iter.                  ...        0 min,  3.595 sec
     gradient                   ...        0 min,  0.816 sec
 * total energy  :  -528.3705611 Eh     change       -0.1246225E+00 Eh
   gradient norm :     0.1482513 Eh/α   predicted    -0.1186740E+00 (  -4.77%)
   displ. norm   :     0.8235578 α      lambda       -0.1019608E+00
   maximum displ.:     0.2474259 α      in ANC's #200, #230, #286, ...

........................................................................
.............................. CYCLE    5 ..............................
........................................................................
   1   -536.0142527 -0.536014E+03  0.759E-02    0.86       0.0  T
   2   -536.0150145 -0.761782E-03  0.605E-02    0.86       1.0  T
   3   -536.0161024 -0.108790E-02  0.205E-02    0.86       1.0  T
   4   -536.0159467  0.155706E-03  0.225E-02    0.86       1.0  T
   5   -536.0162236 -0.276890E-03  0.599E-03    0.86       1.0  T
   6   -536.0162519 -0.283092E-04  0.178E-03    0.86       3.2  T
   7   -536.0162548 -0.292191E-05  0.683E-04    0.86       8.4  T
   8   -536.0162553 -0.481319E-06  0.281E-04    0.86      20.4  T
   9   -536.0162554 -0.739451E-07  0.998E-05    0.86      57.5  T
  10   -536.0162554 -0.346813E-08  0.356E-05    0.86     161.3  T
     SCC iter.                  ...        0 min,  3.590 sec
     gradient                   ...        0 min,  0.816 sec
 * total energy  :  -528.4607682 Eh     change       -0.9020711E-01 Eh
   gradient norm :     0.1130147 Eh/α   predicted    -0.8555771E-01 (  -5.15%)
   displ. norm   :     0.8799515 α      lambda       -0.8507103E-01
   maximum displ.:     0.2799878 α      in ANC's #200, #230, #78, ...

........................................................................
.............................. CYCLE    6 ..............................
........................................................................
   1   -536.0324313 -0.536032E+03  0.627E-02    0.87       0.0  T
   2   -536.0326222 -0.190815E-03  0.620E-02    0.88       1.0  T
   3   -536.0334981 -0.875890E-03  0.254E-02    0.88       1.0  T
   4   -536.0330404  0.457672E-03  0.260E-02    0.88       1.0  T
   5   -536.0335168 -0.476430E-03  0.488E-03    0.88       1.2  T
   6   -536.0335363 -0.194448E-04  0.111E-03    0.88       5.2  T
   7   -536.0335372 -0.933440E-06  0.457E-04    0.88      12.6  T
   8   -536.0335374 -0.244958E-06  0.181E-04    0.88      31.7  T
   9   -536.0335375 -0.350336E-07  0.644E-05    0.88      89.1  T
     SCC iter.                  ...        0 min,  3.245 sec
     gradient                   ...        0 min,  0.816 sec
 * total energy  :  -528.5315880 Eh     change       -0.7081985E-01 Eh
   gradient norm :     0.0820284 Eh/α   predicted    -0.7547140E-01 (   6.57%)
   displ. norm   :     0.8043562 α      lambda       -0.5120193E-01
   maximum displ.:     0.2937222 α      in ANC's #78, #200, #100, ...

........................................................................
.............................. CYCLE    7 ..............................
........................................................................
   1   -536.0602041 -0.536060E+03  0.379E-02    0.87       0.0  T
   2   -536.0601586  0.454798E-04  0.396E-02    0.87       1.0  T
   3   -536.0606920 -0.533424E-03  0.145E-02    0.87       1.0  T
   4   -536.0604988  0.193168E-03  0.165E-02    0.87       1.0  T
   5   -536.0607071 -0.208274E-03  0.284E-03    0.87       2.0  T
   6   -536.0607099 -0.283684E-05  0.532E-04    0.87      10.8  T
   7   -536.0607101 -0.182676E-06  0.251E-04    0.87      22.8  T
   8   -536.0607102 -0.732159E-07  0.978E-05    0.87      58.6  T
   9   -536.0607102 -0.955515E-08  0.347E-05    0.87     165.0  T
     SCC iter.                  ...        0 min,  3.248 sec
     gradient                   ...        0 min,  0.820 sec
 * total energy  :  -528.5715895 Eh     change       -0.4000143E-01 Eh
   gradient norm :     0.0694337 Eh/α   predicted    -0.4216465E-01 (   5.41%)
   displ. norm   :     0.7552814 α      lambda       -0.3514539E-01
   maximum displ.:     0.3214572 α      in ANC's #78, #100, #192, ...

........................................................................
.............................. CYCLE    8 ..............................
........................................................................
   1   -536.1080668 -0.536108E+03  0.216E-02    0.87       0.0  T
   2   -536.1081092 -0.423787E-04  0.174E-02    0.87       1.0  T
   3   -536.1082532 -0.144072E-03  0.754E-03    0.87       1.0  T
   4   -536.1082543 -0.109212E-05  0.669E-03    0.87       1.0  T
   5   -536.1082810 -0.267154E-04  0.191E-03    0.87       3.0  T
   6   -536.1082819 -0.883447E-06  0.467E-04    0.87      12.3  T
   7   -536.1082821 -0.188484E-06  0.216E-04    0.87      26.6  T
   8   -536.1082822 -0.515278E-07  0.839E-05    0.87      68.3  T
   9   -536.1082822 -0.484283E-08  0.286E-05    0.87     200.6  T
     SCC iter.                  ...        0 min,  3.240 sec
     gradient                   ...        0 min,  0.818 sec
 * total energy  :  -528.5999093 Eh     change       -0.2831984E-01 Eh
   gradient norm :     0.0436367 Eh/α   predicted    -0.2759705E-01 (  -2.55%)
   displ. norm   :     0.8208353 α      lambda       -0.2468202E-01
   maximum displ.:     0.4063663 α      in ANC's #78, #100, #119, ...

........................................................................
.............................. CYCLE    9 ..............................
........................................................................
   1   -536.1513436 -0.536151E+03  0.175E-02    0.87       0.0  T
   2   -536.1513473 -0.365136E-05  0.146E-02    0.87       1.0  T
   3   -536.1514361 -0.888004E-04  0.555E-03    0.87       1.0  T
   4   -536.1514287  0.734733E-05  0.583E-03    0.87       1.0  T
   5   -536.1514515 -0.227880E-04  0.108E-03    0.87       5.3  T
   6   -536.1514517 -0.249433E-06  0.385E-04    0.87      14.9  T
   7   -536.1514519 -0.136174E-06  0.145E-04    0.87      39.7  T
   8   -536.1514519 -0.226756E-07  0.513E-05    0.87     111.8  T
     SCC iter.                  ...        0 min,  2.879 sec
     gradient                   ...        0 min,  0.817 sec
 * total energy  :  -528.6205114 Eh     change       -0.2060210E-01 Eh
   gradient norm :     0.0293325 Eh/α   predicted    -0.2065604E-01 (   0.26%)
   displ. norm   :     0.8716126 α      lambda       -0.1980191E-01
   maximum displ.:     0.4574932 α      in ANC's #78, #100, #66, ...

........................................................................
.............................. CYCLE   10 ..............................
........................................................................
   1   -536.1905385 -0.536191E+03  0.139E-02    0.87       0.0  T
   2   -536.1905576 -0.191096E-04  0.998E-03    0.87       1.0  T
   3   -536.1905920 -0.343540E-04  0.478E-03    0.87       1.2  T
   4   -536.1905919  0.842414E-07  0.416E-03    0.87       1.4  T
   5   -536.1906045 -0.126172E-04  0.852E-04    0.87       6.7  T
   6   -536.1906048 -0.254890E-06  0.299E-04    0.87      19.2  T
   7   -536.1906048 -0.767470E-07  0.110E-04    0.87      51.9  T
   8   -536.1906048 -0.107883E-07  0.423E-05    0.87     135.6  T
     SCC iter.                  ...        0 min,  2.892 sec
     gradient                   ...        0 min,  0.832 sec
 * total energy  :  -528.6340186 Eh     change       -0.1350723E-01 Eh
   gradient norm :     0.0350471 Eh/α   predicted    -0.1742280E-01 (  28.99%)
   displ. norm   :     0.8162562 α      lambda       -0.1854537E-01
   maximum displ.:     0.4013839 α      in ANC's #78, #100, #73, ...

........................................................................
.............................. CYCLE   11 ..............................
........................................................................
   1   -536.2309498 -0.536231E+03  0.129E-02    0.88       0.0  T
   2   -536.2309686 -0.187776E-04  0.933E-03    0.88       1.0  T
   3   -536.2309902 -0.216356E-04  0.449E-03    0.88       1.3  T
   4   -536.2309807  0.950174E-05  0.421E-03    0.88       1.4  T
   5   -536.2309975 -0.168274E-04  0.115E-03    0.88       5.0  T
   6   -536.2309982 -0.694454E-06  0.257E-04    0.88      22.3  T
   7   -536.2309983 -0.582581E-07  0.886E-05    0.88      64.7  T
   8   -536.2309983 -0.832688E-08  0.366E-05    0.88     156.7  T
     SCC iter.                  ...        0 min,  2.898 sec
     gradient                   ...        0 min,  0.830 sec
 * total energy  :  -528.6466039 Eh     change       -0.1258528E-01 Eh
   gradient norm :     0.0354775 Eh/α   predicted    -0.1545084E-01 (  22.77%)
   displ. norm   :     0.7562594 α      lambda       -0.1107681E-01
   maximum displ.:     0.4323443 α      in ANC's #78, #100, #66, ...

........................................................................
.............................. CYCLE   12 ..............................
........................................................................
   1   -536.2569518 -0.536257E+03  0.131E-02    0.89       0.0  T
   2   -536.2569582 -0.632691E-05  0.115E-02    0.89       1.0  T
   3   -536.2570080 -0.498921E-04  0.410E-03    0.89       1.4  T
   4   -536.2569944  0.135967E-04  0.454E-03    0.89       1.3  T
   5   -536.2570117 -0.172059E-04  0.776E-04    0.89       7.4  T
   6   -536.2570120 -0.377422E-06  0.247E-04    0.89      23.3  T
   7   -536.2570121 -0.694487E-07  0.106E-04    0.89      54.2  T
   8   -536.2570121 -0.117602E-07  0.241E-05    0.89     238.3  T
     SCC iter.                  ...        0 min,  2.896 sec
     gradient                   ...        0 min,  0.830 sec
 * total energy  :  -528.6556422 Eh     change       -0.9038308E-02 Eh
   gradient norm :     0.0260443 Eh/α   predicted    -0.8705993E-02 (  -3.68%)
   displ. norm   :     0.8389234 α      lambda       -0.1034928E-01
   maximum displ.:     0.4445992 α      in ANC's #78, #100, #66, ...

........................................................................
.............................. CYCLE   13 ..............................
........................................................................
   1   -536.2802839 -0.536280E+03  0.890E-03    0.89       0.0  T
   2   -536.2802699  0.139892E-04  0.871E-03    0.89       1.0  T
   3   -536.2803230 -0.531017E-04  0.291E-03    0.89       2.0  T
   4   -536.2803190  0.401313E-05  0.317E-03    0.89       1.8  T
   5   -536.2803264 -0.733336E-05  0.695E-04    0.89       8.3  T
   6   -536.2803266 -0.242141E-06  0.221E-04    0.89      25.9  T
   7   -536.2803267 -0.485683E-07  0.813E-05    0.89      70.5  T
   8   -536.2803267 -0.591933E-08  0.322E-05    0.89     178.1  T
     SCC iter.                  ...        0 min,  2.887 sec
     gradient                   ...        0 min,  0.825 sec
 * total energy  :  -528.6628175 Eh     change       -0.7175274E-02 Eh
   gradient norm :     0.0294746 Eh/α   predicted    -0.8816524E-02 (  22.87%)
   displ. norm   :     0.7792716 α      lambda       -0.9695271E-02
   maximum displ.:     0.3955348 α      in ANC's #78, #100, #66, ...

........................................................................
.............................. CYCLE   14 ..............................
........................................................................
   1   -536.3024854 -0.536302E+03  0.102E-02    0.90       0.0  T
   2   -536.3024696  0.157392E-04  0.103E-02    0.90       1.0  T
   3   -536.3025391 -0.694891E-04  0.345E-03    0.90       1.7  T
   4   -536.3025310  0.813527E-05  0.388E-03    0.90       1.5  T
   5   -536.3025424 -0.113675E-04  0.810E-04    0.90       7.1  T
   6   -536.3025427 -0.357925E-06  0.222E-04    0.90      25.9  T
   7   -536.3025428 -0.364374E-07  0.812E-05    0.90      70.6  T
   8   -536.3025428 -0.542718E-08  0.432E-05    0.90     132.7  T
     SCC iter.                  ...        0 min,  2.890 sec
     gradient                   ...        0 min,  0.825 sec
 * total energy  :  -528.6688943 Eh     change       -0.6076768E-02 Eh
   gradient norm :     0.0222655 Eh/α   predicted    -0.7791435E-02 (  28.22%)
   displ. norm   :     0.7274956 α      lambda       -0.6646415E-02
   maximum displ.:     0.3457274 α      in ANC's #78, #36, #66, ...

........................................................................
.............................. CYCLE   15 ..............................
........................................................................
   1   -536.3170895 -0.536317E+03  0.771E-03    0.90       0.0  T
   2   -536.3170675  0.219563E-04  0.813E-03    0.90       1.0  T
   3   -536.3171293 -0.617898E-04  0.259E-03    0.90       2.2  T
   4   -536.3171269  0.241919E-05  0.254E-03    0.90       2.3  T
   5   -536.3171307 -0.377640E-05  0.695E-04    0.90       8.2  T
   6   -536.3171311 -0.368996E-06  0.263E-04    0.90      21.8  T
   7   -536.3171311 -0.749087E-07  0.588E-05    0.90      97.5  T
   8   -536.3171311 -0.198111E-08  0.249E-05    0.90     230.6  T
     SCC iter.                  ...        0 min,  2.889 sec
     gradient                   ...        0 min,  0.821 sec
 * total energy  :  -528.6722790 Eh     change       -0.3384682E-02 Eh
   gradient norm :     0.0276456 Eh/α   predicted    -0.5082019E-02 (  50.15%)
   displ. norm   :     0.6399735 α      lambda       -0.6031879E-02
   maximum displ.:     0.2933428 α      in ANC's #78, #36, #26, ...

........................................................................
.............................. CYCLE   16 ..............................
........................................................................
   1   -536.3257820 -0.536326E+03  0.920E-03    0.89       0.0  T
   2   -536.3257646  0.173686E-04  0.946E-03    0.89       1.0  T
   3   -536.3258287 -0.641167E-04  0.298E-03    0.89       1.9  T
   4   -536.3258229  0.583890E-05  0.322E-03    0.89       1.8  T
   5   -536.3258305 -0.758548E-05  0.774E-04    0.89       7.4  T
   6   -536.3258309 -0.366786E-06  0.269E-04    0.89      21.3  T
   7   -536.3258309 -0.874174E-07  0.679E-05    0.89      84.5  T
   8   -536.3258309 -0.355703E-08  0.209E-05    0.89     275.1  T
     SCC iter.                  ...        0 min,  2.892 sec
     gradient                   ...        0 min,  0.825 sec
 * total energy  :  -528.6759980 Eh     change       -0.3719002E-02 Eh
   gradient norm :     0.0179184 Eh/α   predicted    -0.4251171E-02 (  14.31%)
   displ. norm   :     0.6328180 α      lambda       -0.3252115E-02
   maximum displ.:     0.2417916 α      in ANC's #78, #36, #26, ...

........................................................................
.............................. CYCLE   17 ..............................
........................................................................
   1   -536.3380569 -0.536338E+03  0.615E-03    0.89       0.0  T
   2   -536.3380355  0.213880E-04  0.702E-03    0.89       1.0  T
   3   -536.3380917 -0.561454E-04  0.189E-03    0.89       3.0  T
   4   -536.3380904  0.127579E-05  0.182E-03    0.89       3.2  T
   5   -536.3380921 -0.166218E-05  0.573E-04    0.89      10.0  T
   6   -536.3380924 -0.284879E-06  0.205E-04    0.89      27.9  T
   7   -536.3380924 -0.425035E-07  0.566E-05    0.89     101.3  T
   8   -536.3380924 -0.169916E-08  0.225E-05    0.89     255.3  T
     SCC iter.                  ...        0 min,  2.886 sec
     gradient                   ...        0 min,  0.826 sec
 * total energy  :  -528.6783652 Eh     change       -0.2367265E-02 Eh
   gradient norm :     0.0146494 Eh/α   predicted    -0.2277228E-02 (  -3.80%)
   displ. norm   :     0.6957495 α      lambda       -0.3100447E-02
   maximum displ.:     0.2370498 α      in ANC's #36, #26, #78, ...

........................................................................
.............................. CYCLE   18 ..............................
........................................................................
   1   -536.3519682 -0.536352E+03  0.877E-03    0.89       0.0  T
   2   -536.3519442  0.239870E-04  0.964E-03    0.89       1.0  T
   3   -536.3520263 -0.821039E-04  0.312E-03    0.89       1.8  T
   4   -536.3520227  0.366570E-05  0.284E-03    0.89       2.0  T
   5   -536.3520281 -0.546168E-05  0.867E-04    0.89       6.6  T
   6   -536.3520285 -0.370252E-06  0.232E-04    0.89      24.7  T
   7   -536.3520285 -0.382546E-07  0.764E-05    0.89      75.0  T
   8   -536.3520285 -0.477655E-08  0.339E-05    0.89     169.0  T
     SCC iter.                  ...        0 min,  2.888 sec
     gradient                   ...        0 min,  0.825 sec
 * total energy  :  -528.6803014 Eh     change       -0.1936168E-02 Eh
   gradient norm :     0.0180736 Eh/α   predicted    -0.2300637E-02 (  18.82%)
   displ. norm   :     0.6346420 α      lambda       -0.2481702E-02
   maximum displ.:     0.2245397 α      in ANC's #36, #26, #59, ...

........................................................................
.............................. CYCLE   19 ..............................
........................................................................
   1   -536.3608518 -0.536361E+03  0.878E-03    0.88       0.0  T
   2   -536.3608359  0.158794E-04  0.928E-03    0.88       1.0  T
   3   -536.3609004 -0.644640E-04  0.288E-03    0.88       2.0  T
   4   -536.3608972  0.319442E-05  0.269E-03    0.88       2.1  T
   5   -536.3609022 -0.497449E-05  0.857E-04    0.88       6.7  T
   6   -536.3609025 -0.319810E-06  0.240E-04    0.88      23.9  T
   7   -536.3609025 -0.586548E-07  0.709E-05    0.88      80.9  T
   8   -536.3609025 -0.399109E-08  0.229E-05    0.88     250.4  T
     SCC iter.                  ...        0 min,  2.890 sec
     gradient                   ...        0 min,  0.826 sec
 * total energy  :  -528.6816424 Eh     change       -0.1341023E-02 Eh
   gradient norm :     0.0217137 Eh/α   predicted    -0.1740630E-02 (  29.80%)
   displ. norm   :     0.5544472 α      lambda       -0.2242078E-02
   maximum displ.:     0.2006172 α      in ANC's #26, #36, #57, ...

........................................................................
.............................. CYCLE   20 ..............................
........................................................................
   1   -536.3648791 -0.536365E+03  0.833E-03    0.88       0.0  T
   2   -536.3648768  0.227132E-05  0.825E-03    0.88       1.0  T
   3   -536.3649136 -0.367812E-04  0.284E-03    0.88       2.0  T
   4   -536.3649092  0.439471E-05  0.279E-03    0.88       2.1  T
   5   -536.3649149 -0.570480E-05  0.777E-04    0.88       7.4  T
   6   -536.3649152 -0.315132E-06  0.194E-04    0.88      29.5  T
   7   -536.3649153 -0.397865E-07  0.755E-05    0.88      75.9  T
     SCC iter.                  ...        0 min,  2.530 sec
     gradient                   ...        0 min,  0.823 sec
 * total energy  :  -528.6829878 Eh     change       -0.1345379E-02 Eh
   gradient norm :     0.0147877 Eh/α   predicted    -0.1465662E-02 (   8.94%)
   displ. norm   :     0.5516421 α      lambda       -0.1411576E-02
   maximum displ.:     0.2032930 α      in ANC's #26, #36, #59, ...
 * RMSD in coord.:     0.5867155 α      energy gain  -0.1278412E+01 Eh

generating ANC from model Hessian ...
Using Lindh-Hessian (1995)
 Shifting diagonal of input Hessian by    1.0027423078393041E-002
 Lowest  eigenvalues of input Hessian
    0.010000    0.010002    0.010010    0.010013    0.010015    0.010018
    0.010019    0.010020    0.010021    0.000000    0.000000    0.000000
    0.000000    0.000000    0.000000    0.010031    0.010034    0.010040
 Highest eigenvalues
    2.624549    2.630037    2.632728    2.954867    2.955562    2.959623


........................................................................
.............................. CYCLE   21 ..............................
........................................................................
   1   -536.3684794 -0.536368E+03  0.329E-03    0.88       0.0  T
   2   -536.3684752  0.420591E-05  0.337E-03    0.88       1.7  T
   3   -536.3684879 -0.127016E-04  0.109E-03    0.88       5.3  T
   4   -536.3684883 -0.331960E-06  0.696E-04    0.88       8.2  T
   5   -536.3684885 -0.210232E-06  0.305E-04    0.88      18.8  T
   6   -536.3684885 -0.369489E-07  0.980E-05    0.88      58.5  T
   7   -536.3684885 -0.904413E-08  0.336E-05    0.88     170.7  T
     SCC iter.                  ...        0 min,  2.529 sec
     gradient                   ...        0 min,  0.826 sec
 * total energy  :  -528.6839822 Eh     change       -0.9943663E-03 Eh
   gradient norm :     0.0135485 Eh/α   predicted     0.0000000E+00 (-100.00%)
   displ. norm   :     0.1950597 α      lambda       -0.7388657E-03
   maximum displ.:     0.0696491 α      in ANC's #56, #35, #54, ...

........................................................................
.............................. CYCLE   22 ..............................
........................................................................
   1   -536.3714350 -0.536371E+03  0.262E-03    0.88       0.0  T
   2   -536.3714347  0.321900E-06  0.224E-03    0.88       2.6  T
   3   -536.3714376 -0.285658E-05  0.897E-04    0.88       6.4  T
   4   -536.3714375  0.849942E-07  0.755E-04    0.88       7.6  T
   5   -536.3714379 -0.404991E-06  0.230E-04    0.88      24.9  T
   6   -536.3714379 -0.375718E-07  0.775E-05    0.88      74.0  T
   7   -536.3714379 -0.715818E-08  0.210E-05    0.88     272.6  T
     SCC iter.                  ...        0 min,  2.543 sec
     gradient                   ...        0 min,  0.835 sec
 * total energy  :  -528.6844776 Eh     change       -0.4954013E-03 Eh
   gradient norm :     0.0079433 Eh/α   predicted    -0.3835040E-03 ( -22.59%)
   displ. norm   :     0.6003650 α      lambda       -0.1976339E-02
   maximum displ.:     0.2217723 α      in ANC's #56, #35, #54, ...

........................................................................
.............................. CYCLE   23 ..............................
........................................................................
   1   -536.3784557 -0.536378E+03  0.795E-03    0.89       0.0  T
   2   -536.3784517  0.394214E-05  0.691E-03    0.89       1.0  T
   3   -536.3784816 -0.298513E-04  0.269E-03    0.89       2.1  T
   4   -536.3784811  0.468097E-06  0.226E-03    0.89       2.5  T
   5   -536.3784847 -0.356394E-05  0.716E-04    0.89       8.0  T
   6   -536.3784850 -0.310356E-06  0.246E-04    0.89      23.3  T
   7   -536.3784851 -0.703586E-07  0.667E-05    0.89      86.0  T
   8   -536.3784851 -0.398177E-08  0.188E-05    0.89     305.1  T
     SCC iter.                  ...        0 min,  2.893 sec
     gradient                   ...        0 min,  0.837 sec
 * total energy  :  -528.6850232 Eh     change       -0.5456519E-03 Eh
   gradient norm :     0.0200023 Eh/α   predicted    -0.1344371E-02 ( 146.38%)
   displ. norm   :     0.2788283 α      lambda       -0.1349214E-02
   maximum displ.:     0.0959900 α      in ANC's #56, #35, #54, ...

........................................................................
.............................. CYCLE   24 ..............................
........................................................................
   1   -536.3798375 -0.536380E+03  0.192E-03    0.89       0.0  T
   2   -536.3798367  0.828737E-06  0.187E-03    0.89       3.1  T
   3   -536.3798396 -0.290458E-05  0.715E-04    0.89       8.0  T
   4   -536.3798396 -0.349251E-07  0.526E-04    0.89      10.9  T
   5   -536.3798398 -0.148558E-06  0.162E-04    0.89      35.3  T
   6   -536.3798398 -0.161451E-07  0.427E-05    0.89     134.4  T
     SCC iter.                  ...        0 min,  2.177 sec
     gradient                   ...        0 min,  0.833 sec
 * total energy  :  -528.6857963 Eh     change       -0.7730692E-03 Eh
   gradient norm :     0.0154530 Eh/α   predicted    -0.7270556E-03 (  -5.95%)
   displ. norm   :     0.3806836 α      lambda       -0.1425781E-02
   maximum displ.:     0.1373126 α      in ANC's #56, #35, #54, ...

........................................................................
.............................. CYCLE   25 ..............................
........................................................................
   1   -536.3782010 -0.536378E+03  0.488E-03    0.89       0.0  T
   2   -536.3782028 -0.174346E-05  0.456E-03    0.89       1.3  T
   3   -536.3782109 -0.808078E-05  0.189E-03    0.89       3.0  T
   4   -536.3782086  0.230999E-05  0.173E-03    0.89       3.3  T
   5   -536.3782113 -0.275634E-05  0.391E-04    0.89      14.7  T
   6   -536.3782114 -0.788157E-07  0.888E-05    0.89      64.6  T
   7   -536.3782114 -0.681700E-08  0.403E-05    0.89     142.4  T
     SCC iter.                  ...        0 min,  2.531 sec
     gradient                   ...        0 min,  0.827 sec
 * total energy  :  -528.6862335 Eh     change       -0.4371945E-03 Eh
   gradient norm :     0.0121264 Eh/α   predicted    -0.8162130E-03 (  86.69%)
   displ. norm   :     0.3728274 α      lambda       -0.1096790E-02
   maximum displ.:     0.1420064 α      in ANC's #35, #56, #54, ...

........................................................................
.............................. CYCLE   26 ..............................
........................................................................
   1   -536.3803465 -0.536380E+03  0.190E-03    0.89       0.0  T
   2   -536.3803450  0.145926E-05  0.191E-03    0.89       3.0  T
   3   -536.3803493 -0.431525E-05  0.678E-04    0.89       8.5  T
   4   -536.3803495 -0.161031E-06  0.405E-04    0.89      14.2  T
   5   -536.3803496 -0.495088E-07  0.177E-04    0.89      32.4  T
   6   -536.3803496 -0.126144E-07  0.636E-05    0.89      90.2  T
     SCC iter.                  ...        0 min,  2.175 sec
     gradient                   ...        0 min,  0.827 sec
 * total energy  :  -528.6870379 Eh     change       -0.8044129E-03 Eh
   gradient norm :     0.0081911 Eh/α   predicted    -0.6246265E-03 ( -22.35%)
   displ. norm   :     0.5990453 α      lambda       -0.1140248E-02
   maximum displ.:     0.2396306 α      in ANC's #35, #56, #54, ...

........................................................................
.............................. CYCLE   27 ..............................
........................................................................
   1   -536.3814557 -0.536381E+03  0.252E-03    0.89       0.0  T
   2   -536.3814522  0.354044E-05  0.277E-03    0.89       2.1  T
   3   -536.3814623 -0.101149E-04  0.780E-04    0.89       7.3  T
   4   -536.3814624 -0.115165E-06  0.523E-04    0.89      11.0  T
   5   -536.3814625 -0.988250E-07  0.241E-04    0.89      23.8  T
   6   -536.3814625 -0.225324E-07  0.871E-05    0.89      65.9  T
   7   -536.3814625 -0.743057E-08  0.300E-05    0.89     191.4  T
     SCC iter.                  ...        0 min,  2.537 sec
     gradient                   ...        0 min,  0.823 sec
 * total energy  :  -528.6877114 Eh     change       -0.6734905E-03 Eh
   gradient norm :     0.0076663 Eh/α   predicted    -0.7747220E-03 (  15.03%)
   displ. norm   :     0.6172871 α      lambda       -0.1063336E-02
   maximum displ.:     0.2552554 α      in ANC's #35, #56, #54, ...

........................................................................
.............................. CYCLE   28 ..............................
........................................................................
   1   -536.3822546 -0.536382E+03  0.234E-03    0.89       0.0  T
   2   -536.3822526  0.191482E-05  0.206E-03    0.89       2.8  T
   3   -536.3822585 -0.582275E-05  0.822E-04    0.89       7.0  T
   4   -536.3822592 -0.697262E-06  0.319E-04    0.89      18.0  T
   5   -536.3822592  0.132729E-08  0.166E-04    0.89      34.6  T
   6   -536.3822592 -0.120569E-07  0.694E-05    0.89      82.6  T
     SCC iter.                  ...        0 min,  2.168 sec
     gradient                   ...        0 min,  0.822 sec
 * total energy  :  -528.6882554 Eh     change       -0.5440684E-03 Eh
   gradient norm :     0.0091415 Eh/α   predicted    -0.7342588E-03 (  34.96%)
   displ. norm   :     0.5299832 α      lambda       -0.9818776E-03
   maximum displ.:     0.2223043 α      in ANC's #35, #56, #24, ...

........................................................................
.............................. CYCLE   29 ..............................
........................................................................
   1   -536.3846409 -0.536385E+03  0.219E-03    0.89       0.0  T
   2   -536.3846408  0.111922E-06  0.171E-03    0.89       3.4  T
   3   -536.3846427 -0.191041E-05  0.861E-04    0.89       6.7  T
   4   -536.3846430 -0.322699E-06  0.511E-04    0.89      11.2  T
   5   -536.3846432 -0.145488E-06  0.193E-04    0.89      29.6  T
   6   -536.3846432 -0.130550E-07  0.300E-05    0.89     190.9  T
     SCC iter.                  ...        0 min,  2.172 sec
     gradient                   ...        0 min,  0.822 sec
 * total energy  :  -528.6888852 Eh     change       -0.6297933E-03 Eh
   gradient norm :     0.0063760 Eh/α   predicted    -0.6288371E-03 (  -0.15%)
   displ. norm   :     0.5680334 α      lambda       -0.6339634E-03
   maximum displ.:     0.2537473 α      in ANC's #35, #56, #24, ...

........................................................................
.............................. CYCLE   30 ..............................
........................................................................
   1   -536.3870932 -0.536387E+03  0.142E-03    0.89       0.0  T
   2   -536.3870930  0.146430E-06  0.910E-04    0.89       6.3  T
   3   -536.3870938 -0.748255E-06  0.627E-04    0.89       9.1  T
   4   -536.3870942 -0.414596E-06  0.221E-04    0.89      26.0  T
   5   -536.3870942  0.337263E-08  0.106E-04    0.89      54.1  T
   6   -536.3870942 -0.487921E-08  0.325E-05    0.89     176.6  T
     SCC iter.                  ...        0 min,  2.173 sec
     gradient                   ...        0 min,  0.824 sec
 * total energy  :  -528.6893908 Eh     change       -0.5055871E-03 Eh
   gradient norm :     0.0045500 Eh/α   predicted    -0.4192642E-03 ( -17.07%)
   displ. norm   :     0.6240130 α      lambda       -0.5456271E-03
   maximum displ.:     0.2913394 α      in ANC's #35, #24, #29, ...

........................................................................
.............................. CYCLE   31 ..............................
........................................................................
   1   -536.3924952 -0.536392E+03  0.180E-03    0.89       0.0  T
   2   -536.3924957 -0.509213E-06  0.960E-04    0.89       6.0  T
   3   -536.3924959 -0.177145E-06  0.539E-04    0.89      10.6  T
   4   -536.3924959  0.647606E-08  0.399E-04    0.89      14.4  T
   5   -536.3924960 -0.105518E-06  0.136E-04    0.89      42.1  T
   6   -536.3924960 -0.154115E-07  0.298E-05    0.89     192.3  T
     SCC iter.                  ...        0 min,  2.172 sec
     gradient                   ...        0 min,  0.824 sec
 * total energy  :  -528.6898264 Eh     change       -0.4355996E-03 Eh
   gradient norm :     0.0036572 Eh/α   predicted    -0.3790476E-03 ( -12.98%)
   displ. norm   :     0.6205511 α      lambda       -0.4342358E-03
   maximum displ.:     0.2994645 α      in ANC's #35, #24, #29, ...

........................................................................
.............................. CYCLE   32 ..............................
........................................................................
   1   -536.3971000 -0.536397E+03  0.156E-03    0.89       0.0  T
   2   -536.3971004 -0.312288E-06  0.891E-04    0.89       6.4  T
   3   -536.3971007 -0.305188E-06  0.453E-04    0.89      12.7  T
   4   -536.3971008 -0.943664E-07  0.344E-04    0.89      16.7  T
   5   -536.3971008 -0.673093E-07  0.995E-05    0.89      57.6  T
   6   -536.3971008 -0.858563E-08  0.377E-05    0.89     152.2  T
     SCC iter.                  ...        0 min,  2.175 sec
     gradient                   ...        0 min,  0.826 sec
 * total energy  :  -528.6901698 Eh     change       -0.3434120E-03 Eh
   gradient norm :     0.0039137 Eh/α   predicted    -0.3007277E-03 ( -12.43%)
   displ. norm   :     0.5871063 α      lambda       -0.3480827E-03
   maximum displ.:     0.2888895 α      in ANC's #35, #24, #29, ...

........................................................................
.............................. CYCLE   33 ..............................
........................................................................
   1   -536.4000247 -0.536400E+03  0.140E-03    0.89       0.0  T
   2   -536.4000249 -0.174189E-06  0.888E-04    0.89       6.5  T
   3   -536.4000253 -0.399828E-06  0.438E-04    0.89      13.1  T
   4   -536.4000254 -0.111507E-06  0.325E-04    0.89      17.6  T
   5   -536.4000254 -0.583759E-07  0.954E-05    0.89      60.1  T
   6   -536.4000254 -0.607747E-08  0.405E-05    0.89     141.5  T
     SCC iter.                  ...        0 min,  2.175 sec
     gradient                   ...        0 min,  0.823 sec
 * total energy  :  -528.6904196 Eh     change       -0.2497655E-03 Eh
   gradient norm :     0.0034859 Eh/α   predicted    -0.2340366E-03 (  -6.30%)
   displ. norm   :     0.5232870 α      lambda       -0.2787618E-03
   maximum displ.:     0.2623786 α      in ANC's #35, #24, #29, ...

........................................................................
.............................. CYCLE   34 ..............................
........................................................................
   1   -536.4028087 -0.536403E+03  0.138E-03    0.89       0.0  T
   2   -536.4028088 -0.160620E-06  0.884E-04    0.89       6.5  T
   3   -536.4028092 -0.385414E-06  0.465E-04    0.89      12.3  T
   4   -536.4028093 -0.125737E-06  0.329E-04    0.89      17.4  T
   5   -536.4028094 -0.562476E-07  0.104E-04    0.89      55.3  T
   6   -536.4028094 -0.659702E-08  0.412E-05    0.89     139.3  T
     SCC iter.                  ...        0 min,  2.173 sec
     gradient                   ...        0 min,  0.829 sec
 * total energy  :  -528.6905994 Eh     change       -0.1797698E-03 Eh
   gradient norm :     0.0030988 Eh/α   predicted    -0.1775511E-03 (  -1.23%)
   displ. norm   :     0.3830770 α      lambda       -0.1540320E-03
   maximum displ.:     0.1951575 α      in ANC's #35, #24, #29, ...

........................................................................
.............................. CYCLE   35 ..............................
........................................................................
   1   -536.4061034 -0.536406E+03  0.101E-03    0.89       0.0  T
   2   -536.4061035 -0.684963E-07  0.666E-04    0.89       8.6  T
   3   -536.4061037 -0.261559E-06  0.338E-04    0.89      16.9  T
   4   -536.4061038 -0.613556E-07  0.220E-04    0.89      26.0  T
   5   -536.4061038 -0.214761E-07  0.799E-05    0.89      71.8  T
   6   -536.4061038 -0.317470E-08  0.296E-05    0.89     193.5  T
     SCC iter.                  ...        0 min,  2.181 sec
     gradient                   ...        0 min,  0.839 sec
 * total energy  :  -528.6907180 Eh     change       -0.1185901E-03 Eh
   gradient norm :     0.0026967 Eh/α   predicted    -0.8832133E-04 ( -25.52%)
   displ. norm   :     0.3775747 α      lambda       -0.1496348E-03
   maximum displ.:     0.1873184 α      in ANC's #35, #24, #29, ...

........................................................................
.............................. CYCLE   36 ..............................
........................................................................
   1   -536.4082833 -0.536408E+03  0.112E-03    0.89       0.0  T
   2   -536.4082834 -0.805396E-07  0.767E-04    0.89       7.5  T
   3   -536.4082839 -0.520943E-06  0.402E-04    0.89      14.3  T
   4   -536.4082841 -0.119978E-06  0.182E-04    0.89      31.5  T
   5   -536.4082841 -0.260684E-08  0.101E-04    0.89      56.8  T
     SCC iter.                  ...        0 min,  1.819 sec
     gradient                   ...        0 min,  0.837 sec
 * total energy  :  -528.6908400 Eh     change       -0.1220351E-03 Eh
   gradient norm :     0.0026672 Eh/α   predicted    -0.8548895E-04 ( -29.95%)
   displ. norm   :     0.4676344 α      lambda       -0.1991506E-03
   maximum displ.:     0.2137845 α      in ANC's #35, #24, #29, ...

........................................................................
.............................. CYCLE   37 ..............................
........................................................................
   1   -536.4103058 -0.536410E+03  0.170E-03    0.89       0.0  T
   2   -536.4103054  0.359814E-06  0.141E-03    0.89       4.1  T
   3   -536.4103079 -0.248902E-05  0.584E-04    0.89       9.8  T
   4   -536.4103082 -0.287908E-06  0.240E-04    0.89      23.9  T
   5   -536.4103082  0.877094E-09  0.141E-04    0.89      40.6  T
   6   -536.4103082 -0.101807E-07  0.608E-05    0.89      94.3  T
     SCC iter.                  ...        0 min,  2.186 sec
     gradient                   ...        0 min,  0.842 sec
 * total energy  :  -528.6909984 Eh     change       -0.1584420E-03 Eh
   gradient norm :     0.0036369 Eh/α   predicted    -0.1213540E-03 ( -23.41%)
   displ. norm   :     0.4988113 α      lambda       -0.2062547E-03
   maximum displ.:     0.2122058 α      in ANC's #24, #35, #29, ...

........................................................................
.............................. CYCLE   38 ..............................
........................................................................
   1   -536.4116813 -0.536412E+03  0.200E-03    0.88       0.0  T
   2   -536.4116797  0.153715E-05  0.198E-03    0.88       2.9  T
   3   -536.4116854 -0.568723E-05  0.578E-04    0.88       9.9  T
   4   -536.4116857 -0.236342E-06  0.263E-04    0.88      21.8  T
   5   -536.4116857 -0.220120E-08  0.155E-04    0.88      37.0  T
   6   -536.4116857 -0.124251E-07  0.775E-05    0.88      74.0  T
     SCC iter.                  ...        0 min,  2.184 sec
     gradient                   ...        0 min,  0.830 sec
 * total energy  :  -528.6911586 Eh     change       -0.1601170E-03 Eh
   gradient norm :     0.0044834 Eh/α   predicted    -0.1287886E-03 ( -19.57%)
   displ. norm   :     0.4632637 α      lambda       -0.1757670E-03
   maximum displ.:     0.1874048 α      in ANC's #24, #35, #34, ...

........................................................................
.............................. CYCLE   39 ..............................
........................................................................
   1   -536.4116732 -0.536412E+03  0.199E-03    0.88       0.0  T
   2   -536.4116707  0.249781E-05  0.221E-03    0.88       2.6  T
   3   -536.4116782 -0.746590E-05  0.486E-04    0.88      11.8  T
   4   -536.4116783 -0.110004E-06  0.258E-04    0.88      22.2  T
   5   -536.4116783 -0.741261E-08  0.154E-04    0.88      37.2  T
   6   -536.4116783 -0.133198E-07  0.733E-05    0.88      78.2  T
     SCC iter.                  ...        0 min,  2.182 sec
     gradient                   ...        0 min,  0.829 sec
 * total energy  :  -528.6912924 Eh     change       -0.1338797E-03 Eh
   gradient norm :     0.0042600 Eh/α   predicted    -0.1067485E-03 ( -20.27%)
   displ. norm   :     0.4000669 α      lambda       -0.1335803E-03
   maximum displ.:     0.1573661 α      in ANC's #24, #34, #35, ...

........................................................................
.............................. CYCLE   40 ..............................
........................................................................
   1   -536.4123291 -0.536412E+03  0.183E-03    0.88       0.0  T
   2   -536.4123272  0.194336E-05  0.195E-03    0.88       2.9  T
   3   -536.4123328 -0.557760E-05  0.508E-04    0.88      11.3  T
   4   -536.4123329 -0.131096E-06  0.279E-04    0.88      20.6  T
   5   -536.4123329  0.272053E-09  0.165E-04    0.88      34.7  T
   6   -536.4123329 -0.171240E-07  0.679E-05    0.88      84.5  T
     SCC iter.                  ...        0 min,  2.179 sec
     gradient                   ...        0 min,  0.834 sec
 * total energy  :  -528.6913908 Eh     change       -0.9834684E-04 Eh
   gradient norm :     0.0031691 Eh/α   predicted    -0.7748421E-04 ( -21.21%)
   displ. norm   :     0.3287751 α      lambda       -0.8715972E-04
   maximum displ.:     0.1375178 α      in ANC's #24, #35, #34, ...

........................................................................
.............................. CYCLE   41 ..............................
........................................................................
   1   -536.4118006 -0.536412E+03  0.150E-03    0.89       0.0  T
   2   -536.4117994  0.117642E-05  0.154E-03    0.89       3.7  T
   3   -536.4118029 -0.346488E-05  0.423E-04    0.89      13.6  T
   4   -536.4118030 -0.123920E-06  0.207E-04    0.89      27.7  T
   5   -536.4118030 -0.131013E-08  0.125E-04    0.89      46.0  T
   6   -536.4118030 -0.773866E-08  0.552E-05    0.89     103.9  T
     SCC iter.                  ...        0 min,  2.171 sec
     gradient                   ...        0 min,  0.825 sec
 * total energy  :  -528.6914545 Eh     change       -0.6370359E-04 Eh
   gradient norm :     0.0025079 Eh/α   predicted    -0.4829568E-04 ( -24.19%)
   displ. norm   :     0.2733297 α      lambda       -0.6287761E-04
   maximum displ.:     0.1201793 α      in ANC's #24, #35, #34, ...

........................................................................
.............................. CYCLE   42 ..............................
........................................................................
   1   -536.4124600 -0.536412E+03  0.116E-03    0.89       0.0  T
   2   -536.4124598  0.225916E-06  0.948E-04    0.89       6.0  T
   3   -536.4124609 -0.110562E-05  0.405E-04    0.89      14.1  T
   4   -536.4124611 -0.155966E-06  0.166E-04    0.89      34.6  T
   5   -536.4124611 -0.674845E-09  0.957E-05    0.89      59.9  T
     SCC iter.                  ...        0 min,  1.816 sec
     gradient                   ...        0 min,  0.829 sec
 * total energy  :  -528.6915010 Eh     change       -0.4649061E-04 Eh
   gradient norm :     0.0026188 Eh/α   predicted    -0.3379179E-04 ( -27.31%)
   displ. norm   :     0.2546095 α      lambda       -0.5284009E-04
   maximum displ.:     0.1159798 α      in ANC's #24, #35, #27, ...
 * RMSD in coord.:     0.4768056 α      energy gain  -0.8513187E-02 Eh

generating ANC from model Hessian ...
Using Lindh-Hessian (1995)
 Shifting diagonal of input Hessian by    1.0026339216833746E-002
 Lowest  eigenvalues of input Hessian
    0.010000    0.010004    0.010009    0.010012    0.010017    0.010018
    0.010018    0.010019    0.010020    0.000000    0.000000    0.000000
    0.000000    0.000000    0.000000    0.010035    0.010039    0.010043
 Highest eigenvalues
    2.647500    2.647861    2.649689    2.980823    2.981328    2.983229


........................................................................
.............................. CYCLE   43 ..............................
........................................................................
   1   -536.4121201 -0.536412E+03  0.964E-04    0.89       0.0  T
   2   -536.4121201  0.483661E-07  0.711E-04    0.89       8.1  T
   3   -536.4121206 -0.550996E-06  0.362E-04    0.89      15.9  T
   4   -536.4121207 -0.122195E-06  0.143E-04    0.89      40.1  T
   5   -536.4121207 -0.812861E-10  0.836E-05    0.89      68.6  T
     SCC iter.                  ...        0 min,  1.814 sec
     gradient                   ...        0 min,  0.826 sec
 * total energy  :  -528.6915401 Eh     change       -0.3907663E-04 Eh
   gradient norm :     0.0025464 Eh/α   predicted     0.0000000E+00 (-100.00%)
   displ. norm   :     0.0310299 α      lambda       -0.1583816E-04
   maximum displ.:     0.0082885 α      in ANC's #80, #15, #29, ...

........................................................................
.............................. CYCLE   44 ..............................
........................................................................
   1   -536.4123016 -0.536412E+03  0.499E-04    0.89       0.0  T
   2   -536.4123016  0.208561E-07  0.367E-04    0.89      15.6  T
   3   -536.4123017 -0.101358E-06  0.202E-04    0.89      28.4  T
   4   -536.4123017 -0.328266E-07  0.103E-04    0.89      55.7  T
   5   -536.4123017 -0.348518E-08  0.368E-05    0.89     155.9  T
     SCC iter.                  ...        0 min,  1.814 sec
     gradient                   ...        0 min,  0.830 sec
 * total energy  :  -528.6915550 Eh     change       -0.1499433E-04 Eh
   gradient norm :     0.0016809 Eh/α   predicted    -0.1080526E-04 ( -27.94%)
   displ. norm   :     0.1891936 α      lambda       -0.6902287E-04
   maximum displ.:     0.0572167 α      in ANC's #15, #80, #31, ...

........................................................................
.............................. CYCLE   45 ..............................
........................................................................
   1   -536.4131066 -0.536413E+03  0.290E-03    0.88       0.0  T
   2   -536.4131058  0.724852E-06  0.214E-03    0.88       2.7  T
   3   -536.4131094 -0.356499E-05  0.116E-03    0.88       5.0  T
   4   -536.4131105 -0.110227E-05  0.603E-04    0.88       9.5  T
   5   -536.4131106 -0.121260E-06  0.223E-04    0.88      25.7  T
   6   -536.4131106 -0.230423E-07  0.818E-05    0.88      70.1  T
   7   -536.4131106 -0.658883E-08  0.283E-05    0.88     202.9  T
     SCC iter.                  ...        0 min,  2.537 sec
     gradient                   ...        0 min,  0.835 sec
 * total energy  :  -528.6915423 Eh     change        0.1272058E-04 Eh
   gradient norm :     0.0054869 Eh/α   predicted    -0.3507155E-04 (-375.71%)
   displ. norm   :     0.0535525 α      lambda       -0.9129075E-04
   maximum displ.:     0.0196502 α      in ANC's #78, #101, #36, ...

........................................................................
.............................. CYCLE   46 ..............................
........................................................................
   1   -536.4134320 -0.536413E+03  0.311E-04    0.88       0.0  T
   2   -536.4134320  0.450882E-08  0.248E-04    0.88      23.1  T
   3   -536.4134320 -0.404358E-07  0.138E-04    0.88      41.6  T
   4   -536.4134320 -0.825685E-08  0.847E-05    0.88      67.7  T
     SCC iter.                  ...        0 min,  1.459 sec
     gradient                   ...        0 min,  0.827 sec
 * total energy  :  -528.6915697 Eh     change       -0.2735719E-04 Eh
   gradient norm :     0.0046874 Eh/α   predicted    -0.4577732E-04 (  67.33%)
   displ. norm   :     0.0758161 α      lambda       -0.1007687E-03
   maximum displ.:     0.0299157 α      in ANC's #77, #80, #136, ...

........................................................................
.............................. CYCLE   47 ..............................
........................................................................
   1   -536.4134678 -0.536413E+03  0.192E-03    0.89       0.0  T
   2   -536.4134681 -0.309096E-06  0.119E-03    0.89       4.8  T
   3   -536.4134685 -0.399351E-06  0.771E-04    0.89       7.4  T
   4   -536.4134688 -0.287486E-06  0.478E-04    0.89      12.0  T
   5   -536.4134689 -0.163389E-06  0.139E-04    0.89      41.2  T
   6   -536.4134689 -0.915668E-08  0.486E-05    0.89     118.0  T
     SCC iter.                  ...        0 min,  2.173 sec
     gradient                   ...        0 min,  0.823 sec
 * total energy  :  -528.6915845 Eh     change       -0.1483029E-04 Eh
   gradient norm :     0.0020746 Eh/α   predicted    -0.5067422E-04 ( 241.69%)
   displ. norm   :     0.0532162 α      lambda       -0.7422892E-04
   maximum displ.:     0.0246445 α      in ANC's #77, #78, #36, ...

........................................................................
.............................. CYCLE   48 ..............................
........................................................................
   1   -536.4134861 -0.536413E+03  0.326E-04    0.89       0.0  T
   2   -536.4134861 -0.227274E-07  0.178E-04    0.89      32.2  T
   3   -536.4134861 -0.594491E-08  0.976E-05    0.89      58.7  T
     SCC iter.                  ...        0 min,  1.098 sec
     gradient                   ...        0 min,  0.829 sec
 * total energy  :  -528.6915875 Eh     change       -0.3005313E-05 Eh
   gradient norm :     0.0021754 Eh/α   predicted    -0.3722028E-04 (1138.48%)
   displ. norm   :     0.0740868 α      lambda       -0.6755516E-04
   maximum displ.:     0.0204759 α      in ANC's #31, #15, #24, ...

........................................................................
.............................. CYCLE   49 ..............................
........................................................................
   1   -536.4135473 -0.536414E+03  0.102E-03    0.89       0.0  T
   2   -536.4135472  0.980549E-07  0.752E-04    0.89       7.6  T
   3   -536.4135476 -0.409360E-06  0.432E-04    0.89      13.3  T
   4   -536.4135478 -0.142051E-06  0.217E-04    0.89      26.4  T
   5   -536.4135478 -0.147935E-07  0.749E-05    0.89      76.5  T
   6   -536.4135478 -0.285161E-08  0.281E-05    0.89     204.0  T
     SCC iter.                  ...        0 min,  2.180 sec
     gradient                   ...        0 min,  0.840 sec
 * total energy  :  -528.6916175 Eh     change       -0.2997562E-04 Eh
   gradient norm :     0.0016652 Eh/α   predicted    -0.3396374E-04 (  13.30%)
   displ. norm   :     0.0689015 α      lambda       -0.2041028E-04
   maximum displ.:     0.0250237 α      in ANC's #15, #29, #33, ...

........................................................................
.............................. CYCLE   50 ..............................
........................................................................
   1   -536.4135466 -0.536414E+03  0.344E-04    0.89       0.0  T
   2   -536.4135466 -0.155527E-07  0.221E-04    0.89      26.0  T
   3   -536.4135467 -0.196071E-07  0.130E-04    0.89      44.2  T
   4   -536.4135467 -0.867806E-08  0.837E-05    0.89      68.5  T
     SCC iter.                  ...        0 min,  1.463 sec
     gradient                   ...        0 min,  0.842 sec
 * total energy  :  -528.6916077 Eh     change        0.9790854E-05 Eh
   gradient norm :     0.0021068 Eh/α   predicted    -0.1022971E-04 (-204.48%)
   displ. norm   :     0.0569270 α      lambda       -0.4625915E-04
   maximum displ.:     0.0231461 α      in ANC's #15, #18, #31, ...

........................................................................
.............................. CYCLE   51 ..............................
........................................................................
   1   -536.4137009 -0.536414E+03  0.523E-04    0.89       0.0  T
   2   -536.4137010 -0.500594E-07  0.301E-04    0.89      19.1  T
   3   -536.4137010 -0.147331E-07  0.173E-04    0.89      33.1  T
   4   -536.4137010  0.298598E-08  0.132E-04    0.89      43.6  T
     SCC iter.                  ...        0 min,  1.460 sec
     gradient                   ...        0 min,  0.840 sec
 * total energy  :  -528.6916361 Eh     change       -0.2835232E-04 Eh
   gradient norm :     0.0012768 Eh/α   predicted    -0.2320687E-04 ( -18.15%)
   displ. norm   :     0.1365565 α      lambda       -0.3319031E-04
   maximum displ.:     0.0567064 α      in ANC's #15, #31, #29, ...

........................................................................
.............................. CYCLE   52 ..............................
........................................................................
   1   -536.4136739 -0.536414E+03  0.429E-04    0.89       0.0  T
   2   -536.4136738  0.462941E-07  0.369E-04    0.89      15.6  T
   3   -536.4136740 -0.153821E-06  0.164E-04    0.89      35.0  T
   4   -536.4136740 -0.209466E-07  0.815E-05    0.89      70.3  T
     SCC iter.                  ...        0 min,  1.459 sec
     gradient                   ...        0 min,  0.836 sec
 * total energy  :  -528.6916562 Eh     change       -0.2017413E-04 Eh
   gradient norm :     0.0011006 Eh/α   predicted    -0.1673353E-04 ( -17.05%)
   displ. norm   :     0.1252714 α      lambda       -0.1778235E-04
   maximum displ.:     0.0531741 α      in ANC's #15, #31, #29, ...

........................................................................
.............................. CYCLE   53 ..............................
........................................................................
   1   -536.4137792 -0.536414E+03  0.238E-04    0.89       0.0  T
   2   -536.4137792  0.195496E-08  0.179E-04    0.89      32.0  T
   3   -536.4137792 -0.317281E-07  0.864E-05    0.89      66.4  T
     SCC iter.                  ...        0 min,  1.098 sec
     gradient                   ...        0 min,  0.838 sec
 * total energy  :  -528.6916726 Eh     change       -0.1633575E-04 Eh
   gradient norm :     0.0010951 Eh/α   predicted    -0.8956263E-05 ( -45.17%)
   displ. norm   :     0.3221822 α      lambda       -0.4118837E-04
   maximum displ.:     0.1397493 α      in ANC's #15, #31, #29, ...

........................................................................
.............................. CYCLE   54 ..............................
........................................................................
   1   -536.4138462 -0.536414E+03  0.662E-04    0.89       0.0  T
   2   -536.4138462 -0.786117E-07  0.382E-04    0.89      15.0  T
   3   -536.4138463 -0.654076E-07  0.217E-04    0.89      26.4  T
   4   -536.4138463 -0.301158E-07  0.132E-04    0.89      43.4  T
   5   -536.4138463 -0.819023E-08  0.536E-05    0.89     107.0  T
     SCC iter.                  ...        0 min,  1.814 sec
     gradient                   ...        0 min,  0.832 sec
 * total energy  :  -528.6917026 Eh     change       -0.2998560E-04 Eh
   gradient norm :     0.0017567 Eh/α   predicted    -0.2154748E-04 ( -28.14%)
   displ. norm   :     0.1866263 α      lambda       -0.1933813E-04
   maximum displ.:     0.0835841 α      in ANC's #15, #31, #29, ...

........................................................................
.............................. CYCLE   55 ..............................
........................................................................
   1   -536.4140209 -0.536414E+03  0.249E-04    0.89       0.0  T
   2   -536.4140209 -0.712498E-08  0.159E-04    0.89      36.0  T
   3   -536.4140209 -0.135491E-07  0.931E-05    0.89      61.6  T
     SCC iter.                  ...        0 min,  1.096 sec
     gradient                   ...        0 min,  0.828 sec
 * total energy  :  -528.6917247 Eh     change       -0.2211131E-04 Eh
   gradient norm :     0.0013711 Eh/α   predicted    -0.9823983E-05 ( -55.57%)
   displ. norm   :     0.3482175 α      lambda       -0.3556781E-04
   maximum displ.:     0.1576195 α      in ANC's #15, #31, #29, ...

........................................................................
.............................. CYCLE   56 ..............................
........................................................................
   1   -536.4144683 -0.536414E+03  0.656E-04    0.88       0.0  T
   2   -536.4144683  0.127486E-07  0.499E-04    0.88      11.5  T
   3   -536.4144685 -0.197421E-06  0.246E-04    0.88      23.3  T
   4   -536.4144686 -0.468758E-07  0.157E-04    0.88      36.6  T
   5   -536.4144686 -0.118093E-07  0.528E-05    0.88     108.6  T
     SCC iter.                  ...        0 min,  1.817 sec
     gradient                   ...        0 min,  0.830 sec
 * total energy  :  -528.6917589 Eh     change       -0.3426503E-04 Eh
   gradient norm :     0.0016055 Eh/α   predicted    -0.1874342E-04 ( -45.30%)
   displ. norm   :     0.4183953 α      lambda       -0.3790991E-04
   maximum displ.:     0.1889223 α      in ANC's #15, #31, #29, ...

........................................................................
.............................. CYCLE   57 ..............................
........................................................................
   1   -536.4146082 -0.536415E+03  0.756E-04    0.88       0.0  T
   2   -536.4146080  0.173965E-06  0.689E-04    0.88       8.3  T
   3   -536.4146086 -0.589568E-06  0.223E-04    0.88      25.7  T
   4   -536.4146087 -0.468650E-07  0.143E-04    0.88      40.1  T
   5   -536.4146087 -0.774628E-08  0.580E-05    0.88      98.9  T
     SCC iter.                  ...        0 min,  1.815 sec
     gradient                   ...        0 min,  0.829 sec
 * total energy  :  -528.6918014 Eh     change       -0.4250533E-04 Eh
   gradient norm :     0.0017487 Eh/α   predicted    -0.2043163E-04 ( -51.93%)
   displ. norm   :     0.5581324 α      lambda       -0.4767859E-04
   maximum displ.:     0.2553404 α      in ANC's #15, #31, #29, ...

........................................................................
.............................. CYCLE   58 ..............................
........................................................................
   1   -536.4143709 -0.536414E+03  0.102E-03    0.88       0.0  T
   2   -536.4143708  0.104523E-06  0.769E-04    0.88       7.5  T
   3   -536.4143714 -0.597711E-06  0.337E-04    0.88      17.0  T
   4   -536.4143716 -0.143600E-06  0.178E-04    0.88      32.3  T
   5   -536.4143716 -0.116471E-07  0.713E-05    0.88      80.4  T
     SCC iter.                  ...        0 min,  1.814 sec
     gradient                   ...        0 min,  0.829 sec
 * total energy  :  -528.6918596 Eh     change       -0.5812598E-04 Eh
   gradient norm :     0.0017661 Eh/α   predicted    -0.2714284E-04 ( -53.30%)
   displ. norm   :     0.6046503 α      lambda       -0.5670934E-04
   maximum displ.:     0.2787557 α      in ANC's #15, #31, #29, ...

........................................................................
.............................. CYCLE   59 ..............................
........................................................................
   1   -536.4144761 -0.536414E+03  0.112E-03    0.88       0.0  T
   2   -536.4144763 -0.243504E-06  0.492E-04    0.88      11.6  T
   3   -536.4144764 -0.961026E-07  0.326E-04    0.88      17.6  T
   4   -536.4144765 -0.115450E-06  0.141E-04    0.88      40.8  T
   5   -536.4144765 -0.521061E-08  0.534E-05    0.88     107.5  T
     SCC iter.                  ...        0 min,  1.815 sec
     gradient                   ...        0 min,  0.827 sec
 * total energy  :  -528.6919260 Eh     change       -0.6640064E-04 Eh
   gradient norm :     0.0014955 Eh/α   predicted    -0.3296651E-04 ( -50.35%)
   displ. norm   :     0.6158798 α      lambda       -0.5224719E-04
   maximum displ.:     0.2861480 α      in ANC's #15, #31, #29, ...

........................................................................
.............................. CYCLE   60 ..............................
........................................................................
   1   -536.4142635 -0.536414E+03  0.124E-03    0.88       0.0  T
   2   -536.4142636 -0.137643E-06  0.683E-04    0.88       8.4  T
   3   -536.4142640 -0.339842E-06  0.468E-04    0.88      12.3  T
   4   -536.4142643 -0.282503E-06  0.126E-04    0.88      45.4  T
   5   -536.4142643 -0.819682E-10  0.629E-05    0.88      91.2  T
     SCC iter.                  ...        0 min,  1.818 sec
     gradient                   ...        0 min,  0.830 sec
 * total energy  :  -528.6919855 Eh     change       -0.5950391E-04 Eh
   gradient norm :     0.0015753 Eh/α   predicted    -0.3052959E-04 ( -48.69%)
   displ. norm   :     0.5776871 α      lambda       -0.4696468E-04
   maximum displ.:     0.2687980 α      in ANC's #15, #31, #29, ...

........................................................................
.............................. CYCLE   61 ..............................
........................................................................
   1   -536.4145783 -0.536415E+03  0.132E-03    0.88       0.0  T
   2   -536.4145778  0.527848E-06  0.115E-03    0.88       5.0  T
   3   -536.4145796 -0.180070E-05  0.429E-04    0.88      13.4  T
   4   -536.4145798 -0.220440E-06  0.151E-04    0.88      37.9  T
   5   -536.4145798 -0.437115E-08  0.808E-05    0.88      70.9  T
     SCC iter.                  ...        0 min,  1.817 sec
     gradient                   ...        0 min,  0.833 sec
 * total energy  :  -528.6920366 Eh     change       -0.5112805E-04 Eh
   gradient norm :     0.0017739 Eh/α   predicted    -0.2696975E-04 ( -47.25%)
   displ. norm   :     0.5036908 α      lambda       -0.4001171E-04
   maximum displ.:     0.2356155 α      in ANC's #15, #31, #18, ...

........................................................................
.............................. CYCLE   62 ..............................
........................................................................
   1   -536.4154516 -0.536415E+03  0.129E-03    0.88       0.0  T
   2   -536.4154508  0.769603E-06  0.128E-03    0.88       4.5  T
   3   -536.4154531 -0.225829E-05  0.358E-04    0.88      16.0  T
   4   -536.4154532 -0.108316E-06  0.219E-04    0.88      26.2  T
   5   -536.4154532 -0.168538E-07  0.903E-05    0.88      63.5  T
   6   -536.4154532 -0.359933E-08  0.378E-05    0.88     151.7  T
     SCC iter.                  ...        0 min,  2.172 sec
     gradient                   ...        0 min,  0.830 sec
[...]
    29   6 C       60   1 H                                       1.0968720
    29   6 C       61   1 H                                       1.0968624
    31   6 C       62   1 H                                       1.0784697
    32   6 C       63   1 H                                       1.0791107
    39   6 C       64   1 H                                       1.0916263
    39   6 C       65   1 H                                       1.0968973
    39   6 C       66   1 H                                       1.0968115
    40   6 C       67   1 H                                       1.0818191
    41   6 C       68   1 H                                       1.0845224
    42   6 C       69   1 H                                       1.0818259
    45   6 C       70   1 H                                       1.0968364
    45   6 C       71   1 H                                       1.0916554
    45   6 C       72   1 H                                       1.0968861
    74   6 C       75   6 C                                       1.3900419
    75   6 C       76   6 C                                       1.4368322
    76   6 C       77   6 C                                       1.3565512
    77   6 C       78   6 C                                       1.4384525
    75   6 C       79   7 N                                       1.3650082
    78   6 C       79   7 N                                       1.3641010
    78   6 C       80   6 C                                       1.3985109
    80   6 C       81   6 C                                       1.3966835
    81   6 C       82   6 C                                       1.4366172
    82   6 C       83   6 C                                       1.3572983
    81   6 C       84   7 N                                       1.3696748
    83   6 C       85   6 C                                       1.4343792
    84   7 N       85   6 C                                       1.3592468
    85   6 C       86   6 C                                       1.4097762
    86   6 C       87   6 C                                       1.4098686
    87   6 C       88   6 C                                       1.4343368
    88   6 C       89   6 C                                       1.3572080
    89   6 C       90   6 C                                       1.4366543
    90   6 C       91   6 C                                       1.3969946
    92   6 C       93   6 C                                       1.4010881
    93   6 C       94   8 O                                       1.3599066
    94   8 O       95   6 C                                       1.4129893
    93   6 C       96   6 C                                       1.3945338
    96   6 C       97   6 C                                       1.3866783
    97   6 C       98   6 C                                       1.3867126
    92   6 C       99   6 C                                       1.4010263
    98   6 C       99   6 C                                       1.3944994
    99   6 C      100   8 O                                       1.3601965
   100   8 O      101   6 C                                       1.4128814
    91   6 C      102   6 C                                       1.3988169
   102   6 C      103   6 C                                       1.4385644
   103   6 C      104   6 C                                       1.3565077
    74   6 C      105   6 C                                       1.3899987
   104   6 C      105   6 C                                       1.4368248
   102   6 C      106   7 N                                       1.3639923
   105   6 C      106   7 N                                       1.3650520
    87   6 C      107   7 N                                       1.3593013
    90   6 C      107   7 N                                       1.3698492
   108   6 C      109   6 C                                       1.4008348
   109   6 C      110   8 O                                       1.3598742
   110   8 O      111   6 C                                       1.4129940
   109   6 C      112   6 C                                       1.3945888
   112   6 C      113   6 C                                       1.3867028
   113   6 C      114   6 C                                       1.3867449
   108   6 C      115   6 C                                       1.4007580
   114   6 C      115   6 C                                       1.3945304
   115   6 C      116   8 O                                       1.3601302
   116   8 O      117   6 C                                       1.4128811
    74   6 C      118   1 H                                       1.0858466
    76   6 C      119   1 H                                       1.0790997
    77   6 C      120   1 H                                       1.0784733
    82   6 C      121   1 H                                       1.0783137
    83   6 C      122   1 H                                       1.0786095
    88   6 C      123   1 H                                       1.0785927
    89   6 C      124   1 H                                       1.0782392
    95   6 C      125   1 H                                       1.0968939
    95   6 C      126   1 H                                       1.0916409
    95   6 C      127   1 H                                       1.0968122
    96   6 C      128   1 H                                       1.0818163
    97   6 C      129   1 H                                       1.0845136
    98   6 C      130   1 H                                       1.0818245
   101   6 C      131   1 H                                       1.0916703
   101   6 C      132   1 H                                       1.0968799
   101   6 C      133   1 H                                       1.0968686
   103   6 C      134   1 H                                       1.0784461
   104   6 C      135   1 H                                       1.0791073
   111   6 C      136   1 H                                       1.0916285
   111   6 C      137   1 H                                       1.0968943
   111   6 C      138   1 H                                       1.0968102
   112   6 C      139   1 H                                       1.0818224
   113   6 C      140   1 H                                       1.0845216
   114   6 C      141   1 H                                       1.0818238
   117   6 C      142   1 H                                       1.0968433
   117   6 C      143   1 H                                       1.0916557
   117   6 C      144   1 H                                       1.0968820
   145   6 C      146   6 C                                       1.2284155
   147   6 C      148   6 C                                       1.2240626
   149   6 C      150   6 C                                       1.2242476
   151   6 C      152   6 C                                       1.2290726
   153   6 C      154   6 C                                       1.2246827
   155   6 C      156   6 C                                       1.2246885
   157   6 C      158   6 C                                       1.2285637
   159   6 C      160   6 C                                       1.2243456
   161   6 C      162   6 C                                       1.2242206
   164   6 C      165   6 C                                       1.4097840
   165   6 C      166   6 C                                       1.4336834
   166   6 C      167   6 C                                       1.3576144
   167   6 C      168   6 C                                       1.4357871
   165   6 C      169   7 N                                       1.3595260
   168   6 C      169   7 N                                       1.3692377
   168   6 C      170   6 C                                       1.3974984
   170   6 C      171   6 C                                       1.3972553
   171   6 C      172   6 C                                       1.4357386
   172   6 C      173   6 C                                       1.3576713
   171   6 C      174   7 N                                       1.3694908
   173   6 C      175   6 C                                       1.4336292
   174   7 N      175   6 C                                       1.3591408
   175   6 C      176   6 C                                       1.4103819
   176   6 C      177   6 C                                       1.4103115
   177   6 C      178   6 C                                       1.4336110
   178   6 C      179   6 C                                       1.3576908
   179   6 C      180   6 C                                       1.4357464
   180   6 C      181   6 C                                       1.3972223
   182   6 C      183   6 C                                       1.4008892
   183   6 C      184   8 O                                       1.3597802
   184   8 O      185   6 C                                       1.4130227
   183   6 C      186   6 C                                       1.3945402
   186   6 C      187   6 C                                       1.3867253
   187   6 C      188   6 C                                       1.3867344
   182   6 C      189   6 C                                       1.4009274
   188   6 C      189   6 C                                       1.3945333
   189   6 C      190   8 O                                       1.3597388
   190   8 O      191   6 C                                       1.4130503
   181   6 C      192   6 C                                       1.3974171
   192   6 C      193   6 C                                       1.4358328
   193   6 C      194   6 C                                       1.3576188
   164   6 C      195   6 C                                       1.4097846
   194   6 C      195   6 C                                       1.4337397
   192   6 C      196   7 N                                       1.3691283
   195   6 C      196   7 N                                       1.3594502
   177   6 C      197   7 N                                       1.3591819
   180   6 C      197   7 N                                       1.3694740
   198   6 C      199   6 C                                       1.4010097
   199   6 C      200   8 O                                       1.3597628
   200   8 O      201   6 C                                       1.4130926
   199   6 C      202   6 C                                       1.3945466
   202   6 C      203   6 C                                       1.3866793
   203   6 C      204   6 C                                       1.3866758
   198   6 C      205   6 C                                       1.4009619
   204   6 C      205   6 C                                       1.3945450
   205   6 C      206   8 O                                       1.3598377
   206   8 O      207   6 C                                       1.4130432
   166   6 C      208   1 H                                       1.0785713
   167   6 C      209   1 H                                       1.0782238
   172   6 C      210   1 H                                       1.0782219
   173   6 C      211   1 H                                       1.0785719
   178   6 C      212   1 H                                       1.0785776
   179   6 C      213   1 H                                       1.0782370
   185   6 C      214   1 H                                       1.0968155
   185   6 C      215   1 H                                       1.0916349
   185   6 C      216   1 H                                       1.0968391
   186   6 C      217   1 H                                       1.0818203
   187   6 C      218   1 H                                       1.0845216
   188   6 C      219   1 H                                       1.0818165
   191   6 C      220   1 H                                       1.0916326
   191   6 C      221   1 H                                       1.0968639
   191   6 C      222   1 H                                       1.0967914
   193   6 C      223   1 H                                       1.0782384
   194   6 C      224   1 H                                       1.0785781
   201   6 C      225   1 H                                       1.0968505
   201   6 C      226   1 H                                       1.0916142
   201   6 C      227   1 H                                       1.0968096
   202   6 C      228   1 H                                       1.0817982
   203   6 C      229   1 H                                       1.0845089
   204   6 C      230   1 H                                       1.0817988
   207   6 C      231   1 H                                       1.0968511
   207   6 C      232   1 H                                       1.0968238
   207   6 C      233   1 H                                       1.0916134
   235   6 C      236   6 C                                       1.4103452
   236   6 C      237   6 C                                       1.4335733
   237   6 C      238   6 C                                       1.3576826
   238   6 C      239   6 C                                       1.4357399
   236   6 C      240   7 N                                       1.3592066
   239   6 C      240   7 N                                       1.3694803
   239   6 C      241   6 C                                       1.3973216
   241   6 C      242   6 C                                       1.3974487
   242   6 C      243   6 C                                       1.4357682
   243   6 C      244   6 C                                       1.3576890
   242   6 C      245   7 N                                       1.3692510
   244   6 C      246   6 C                                       1.4336525
   245   7 N      246   6 C                                       1.3594318
   246   6 C      247   6 C                                       1.4098580
   247   6 C      248   6 C                                       1.4100676
   248   6 C      249   6 C                                       1.4336646
   249   6 C      250   6 C                                       1.3576485
   250   6 C      251   6 C                                       1.4357353
   251   6 C      252   6 C                                       1.3975282
   253   6 C      254   6 C                                       1.4009308
   254   6 C      255   8 O                                       1.3597892
   255   8 O      256   6 C                                       1.4130631
   254   6 C      257   6 C                                       1.3945635
   257   6 C      258   6 C                                       1.3866931
   258   6 C      259   6 C                                       1.3866980
   253   6 C      260   6 C                                       1.4010461
   259   6 C      260   6 C                                       1.3945044
   260   6 C      261   8 O                                       1.3597717
   261   8 O      262   6 C                                       1.4130659
   252   6 C      263   6 C                                       1.3971956
   263   6 C      264   6 C                                       1.4357390
   264   6 C      265   6 C                                       1.3576704
   235   6 C      266   6 C                                       1.4103421
   265   6 C      266   6 C                                       1.4336274
   263   6 C      267   7 N                                       1.3694894
   266   6 C      267   7 N                                       1.3590847
   248   6 C      268   7 N                                       1.3594281
   251   6 C      268   7 N                                       1.3692337
   269   6 C      270   6 C                                       1.4009194
   270   6 C      271   8 O                                       1.3597930
   271   8 O      272   6 C                                       1.4130457
   270   6 C      273   6 C                                       1.3945719
   273   6 C      274   6 C                                       1.3866884
   274   6 C      275   6 C                                       1.3867189
   269   6 C      276   6 C                                       1.4010215
   275   6 C      276   6 C                                       1.3944939
   276   6 C      277   8 O                                       1.3597636
   277   8 O      278   6 C                                       1.4130351
   237   6 C      279   1 H                                       1.0785702
   238   6 C      280   1 H                                       1.0782230
   243   6 C      281   1 H                                       1.0782380
   244   6 C      282   1 H                                       1.0785919
   249   6 C      283   1 H                                       1.0785611
   250   6 C      284   1 H                                       1.0782361
   256   6 C      285   1 H                                       1.0968108
   256   6 C      286   1 H                                       1.0916222
   256   6 C      287   1 H                                       1.0968526
   257   6 C      288   1 H                                       1.0818038
   258   6 C      289   1 H                                       1.0845110
   259   6 C      290   1 H                                       1.0818062
   262   6 C      291   1 H                                       1.0916268
   262   6 C      292   1 H                                       1.0968581
   262   6 C      293   1 H                                       1.0967949
   264   6 C      294   1 H                                       1.0782169 (min)
   265   6 C      295   1 H                                       1.0785713
   272   6 C      296   1 H                                       1.0968606
   272   6 C      297   1 H                                       1.0916281
   272   6 C      298   1 H                                       1.0968214
   273   6 C      299   1 H                                       1.0818068
   274   6 C      300   1 H                                       1.0845152
   275   6 C      301   1 H                                       1.0818085
   278   6 C      302   1 H                                       1.0968486
   278   6 C      303   1 H                                       1.0968045
   278   6 C      304   1 H                                       1.0916310

 * 4 distinct bonds (by element types)

   Z      Z             #   av. dist./Å        max./Å        min./Å
   1 H    6 C         106     1.0871163     1.0968993     1.0782169
   6 C    6 C         137     1.3901105     1.4385936     1.2240626
   6 C    7 N          32     1.3644277     1.3698492     1.3590847
   6 C    8 O          32     1.3864482     1.4130926     1.3597388


optimized geometry written to: xtbopt.xyz


           -------------------------------------------------
          | TOTAL ENERGY             -528.692470926994 Eh   |
          | GRADIENT NORM               0.000649517944 Eh/α |
          | HOMO-LUMO GAP               0.883915399373 eV   |
           -------------------------------------------------

------------------------------------------------------------------------
 * finished run on 2022/07/30 at 15:22:19.930     
------------------------------------------------------------------------
 total:
 * wall-time:     0 d,  0 h,  5 min, 24.131 sec
 *  cpu-time:     0 d,  0 h,  5 min, 22.564 sec
 * ratio c/w:     0.995 speedup
 SCF:
 * wall-time:     0 d,  0 h,  0 min,  6.733 sec
 *  cpu-time:     0 d,  0 h,  0 min,  6.699 sec
 * ratio c/w:     0.995 speedup
 ANC optimizer:
 * wall-time:     0 d,  0 h,  5 min, 17.054 sec
 *  cpu-time:     0 d,  0 h,  5 min, 15.530 sec
 * ratio c/w:     0.995 speedup

