304
 energy: -527.404576259901 gnorm: 2.006398686818 xtb: 6.5.1 (b24c23e)
Zn          42.36994400000000       -0.01817500000000       -0.04081000000000
C           39.02589300000000        0.11144200000000        0.05156300000000
C           39.69376700000000        0.89593100000000        0.90204600000000
C           39.04887700000000        1.77525500000000        1.87030900000000
C           39.99477100000000        2.42570500000000        2.52178800000000
C           41.29669800000000        1.99452400000000        1.99617200000000
N           41.11343999999999        1.01910800000000        0.97017000000000
C           42.49029099999999        2.47283200000000        2.39885000000000
C           43.78382000000000        2.02002700000000        1.82680800000000
C           45.07538400000000        2.63732700000000        2.14917700000000
C           46.00975600000000        1.98192900000000        1.49145200000000
N           43.92149800000000        1.02327500000000        1.00683600000000
C           45.32225900000000        0.93479000000000        0.74503800000000
C           45.91539300000000        0.00185700000000       -0.01844700000000
C           45.15499000000000       -1.04601400000000       -0.73875300000000
C           45.70162600000000       -2.14001200000000       -1.25469900000000
C           44.65312200000000       -2.86213700000000       -1.94701300000000
C           43.53362200000000       -2.16126000000000       -1.81079900000000
C           42.23892300000000       -2.52720300000000       -2.44085100000000
C           42.24278700000000       -3.53638700000000       -3.53013400000000
C           42.77043200000000       -3.19768100000000       -4.79228000000000
O           43.26845999999999       -1.89894000000000       -4.99169400000000
C           43.83166000000000       -1.42764600000000       -6.21100900000000
C           42.78167800000000       -4.16264700000000       -5.81611600000000
C           42.27708300000000       -5.44206800000000       -5.58433700000000
C           41.76007000000000       -5.77928500000000       -4.33355700000000
C           41.74204800000000       -4.83283200000000       -3.29257300000000
O           41.24266899999999       -5.14348200000000       -2.01624500000000
C           40.69524100000000       -6.40497900000000       -1.64802700000000
C           41.07590800000000       -1.96704000000000       -2.05966600000000
C           39.75925000000000       -2.24889300000000       -2.62806900000000
C           38.89870100000000       -1.53006600000000       -1.93378700000000
C           39.65730800000000       -0.78323000000000       -0.93149100000000
N           40.92785099999999       -1.03061100000000       -0.99504500000000
N           43.76006699999999       -0.97924800000000       -1.03961200000000
C           42.53436299999999        3.51215000000000        3.45344100000000
C           42.66478200000000        3.13236200000000        4.80345700000000
O           42.75001600000000        1.76539700000000        5.11677400000000
C           42.87162200000000        1.24540400000000        6.43689100000000
C           42.70450100000000        4.12763600000000        5.79730900000000
C           42.61780000000000        5.47575500000000        5.44804700000000
C           42.49284399999999        5.85079900000000        4.10980700000000
C           42.45156800000000        4.87298300000000        3.09880500000000
O           42.33104300000000        5.21252200000000        1.74066300000000
C           42.25213500000000        6.54530000000000        1.24542700000000
H           37.94250000000000        0.13424300000000        0.07402000000000
H           37.98507299999999        1.88983500000000        2.03535600000000
H           39.81443400000000        3.15491300000000        3.30116200000000
H           45.25197099999999        3.47875700000000        2.80636600000000
H           47.06902800000000        2.19786400000000        1.52759800000000
H           46.73999499999999       -2.43692600000000       -1.19375100000000
H           44.77207400000000       -3.78850800000000       -2.49386100000000
H           43.07648499999999       -1.47543800000000       -7.02376600000000
H           44.14642700000000       -0.37193200000000       -6.08010400000000
H           44.72326500000000       -2.03294700000000       -6.47874500000000
H           43.17756400000000       -3.93361300000000       -6.79603800000000
H           42.28959600000000       -6.17792300000000       -6.37815200000000
H           41.38084200000000       -6.78092100000000       -4.18522500000000
H           40.37676800000000       -6.36542900000000       -0.58644800000000
H           39.80852000000000       -6.63384300000000       -2.27616600000000
H           41.46086300000000       -7.20179300000000       -1.76040300000000
H           39.51244300000000       -2.91223500000000       -3.44690200000000
H           37.82809200000000       -1.50651900000000       -2.08934200000000
H           42.91910800000000        0.13858200000000        6.38678400000000
H           41.98826000000000        1.53630900000000        7.04387600000000
H           43.80389200000000        1.62076200000000        6.91032000000000
H           42.80072300000000        3.87033300000000        6.84338200000000
H           42.64858000000000        6.23485600000000        6.21923700000000
H           42.42982600000000        6.90398000000000        3.87241700000000
H           43.17012600000000        7.10889200000000        1.51753300000000
H           42.16845000000000        6.51601000000000        0.13994700000000
H           41.35367700000000        7.05193500000000        1.65690400000000
Zn          91.50252300000000        0.02114700000000        0.00455800000000
C           94.84657400000000       -0.05187600000000       -0.13686500000000
C           94.17869999999999       -0.78229700000000       -1.03421100000000
C           94.82358900000000       -1.61583400000000       -2.04216100000000
C           93.87769500000000       -2.16830900000000       -2.77855700000000
C           92.57576899999999       -1.70927300000000       -2.27708400000000
N           92.75902700000000       -0.83223300000000       -1.16581600000000
C           91.38217600000000       -2.03992400000000       -2.80774300000000
C           90.08864699999999       -1.53800400000000       -2.27827100000000
C           88.79708200000000       -1.76941600000000       -2.93510400000000
C           87.86271100000000       -1.21146100000000       -2.19292200000000
N           89.95096799999999       -0.86793600000000       -1.17514900000000
C           88.55020800000000       -0.62136200000000       -1.05037300000000
C           87.95707299999998        0.00185700000000       -0.01844700000000
C           88.71747700000000        0.56600800000000        1.12111800000000
C           88.17084100000000        0.92131900000000        2.27731300000000
C           89.21934500000000        1.50403400000000        3.09045800000000
C           90.33884500000001        1.46876100000000        2.37733900000000
C           91.63354299999999        2.04044200000000        2.82907100000000
C           91.62967999999999        2.97532400000000        3.98275500000000
C           91.10203499999999        4.27278500000000        3.82677200000000
O           90.60400700000000        4.65466300000000        2.56952700000000
C           90.04080700000000        5.92856100000000        2.27621700000000
C           91.09078799999999        5.14916400000000        4.92738900000000
C           91.59538400000000        4.73799300000000        6.16091100000000
C           92.11239599999999        3.45199500000000        6.31703500000000
C           92.13041899999999        2.55601100000000        5.23230700000000
O           92.62979799999999        1.24849800000000        5.35850400000000
C           93.17722500000001        0.70481700000000        6.55490300000000
C           92.79655899999999        1.74269400000000        2.22044100000000
C           94.11321700000001        2.26529500000000        2.58017800000000
C           94.97376600000000        1.68016400000000        1.77001700000000
C           94.21515900000000        0.79412000000000        0.88837700000000
N           92.94461600000000        0.82188900000000        1.14227800000000
N           90.11239999999999        0.87330000000000        1.09776600000000
C           91.33810399999999       -2.93618500000000       -3.98632700000000
C           91.20768400000000       -4.32646000000000       -3.80216100000000
O           91.12245100000000       -4.83077800000000       -2.49356500000000
C           91.00084500000000       -6.21137400000000       -2.16636800000000
C           91.16796600000001       -5.16885400000000       -4.92852000000000
C           91.25466600000000       -4.63163300000000       -6.21335500000000
C           91.37962299999998       -3.25368800000000       -6.39449800000000
C           91.42089799999999       -2.39183700000000       -5.28298400000000
O           91.54142400000001       -0.99923600000000       -5.42615500000000
C           91.62033200000000       -0.31970100000000       -6.67506900000000
H           95.92996700000000       -0.07086700000000       -0.16262500000000
H           95.88739300000000       -1.76293100000000       -2.17902400000000
H           94.05803199999998       -2.83619500000000       -3.61108200000000
H           88.62049600000000       -2.30041500000000       -3.86135500000000
H           86.80343800000000       -1.21656600000000       -2.41180100000000
H           87.13247199999999        0.81881200000000        2.56255800000000
H           89.10039300000000        1.91374600000000        4.08511500000000
H           90.79598100000000        6.72628700000000        2.43897700000000
H           89.72604000000000        5.94894800000000        1.21261300000000
H           89.14920200000000        6.10759900000000        2.91341200000000
H           90.69490300000000        6.15168400000000        4.83987600000000
H           91.58287099999998        5.41923000000000        7.00206600000000
H           92.49162500000000        3.16288400000000        7.28744300000000
H           93.49569900000000       -0.34037900000000        6.36495600000000
H           94.06394599999999        1.29407600000000        6.87067400000000
H           92.41160400000000        0.70286600000000        7.35960000000000
H           94.36002400000000        2.98159700000000        3.35310800000000
H           96.04437500000000        1.83748600000000        1.76880600000000
H           90.95335900000001       -6.31900000000000       -1.06365200000000
H           91.88420700000000       -6.77088000000000       -2.54054600000000
H           90.06857399999998       -6.62668100000000       -2.60517100000000
H           91.07174400000000       -6.24087000000000       -4.82242100000000
H           91.22388700000000       -5.28717200000000       -7.07430700000000
H           91.44263999999998       -2.86910100000000       -7.40327800000000
H           90.70234100000000       -0.50898900000000       -7.27159900000000
H           91.70401699999998        0.77040900000000       -6.48904200000000
H           92.51879000000000       -0.65503700000000       -7.23501700000000
C           51.97891100000000        0.00296000000000       -0.00995700000000
C           50.76997100000000       -0.01049500000000       -0.01840400000000
C           49.34844200000000       -0.00167600000000       -0.03038700000000
C           48.13677300000000        0.00576300000000       -0.01952400000000
C           53.39551500000000       -0.00371500000000       -0.00942400000000
C           54.61621099999999        0.00576300000000       -0.01952400000000
C           67.54007700000000        0.00296000000000       -0.00995700000000
C           66.33113800000000       -0.01049500000000       -0.01840400000000
C           64.90960900000000       -0.00167600000000       -0.03038700000000
C           63.69793900000000        0.00576300000000       -0.01952400000000
C           68.95668199999999       -0.00371500000000       -0.00942400000000
C           70.17737700000001        0.00576300000000       -0.01952400000000
C           83.10124399999999        0.00296000000000       -0.00995700000000
C           81.89230499999998       -0.01049500000000       -0.01840400000000
C           80.47077600000000       -0.00167600000000       -0.03038700000000
C           79.25910600000000        0.00576300000000       -0.01952400000000
C           84.51784799999999       -0.00371500000000       -0.00942400000000
C           85.73854399999999        0.00576300000000       -0.01952400000000
Zn          59.06189699999999        0.00491800000000       -0.06837200000000
C           55.70642200000000       -0.00261400000000        0.02118200000000
C           56.36364000000000       -0.05056900000000        1.19460100000000
C           55.72249400000000       -0.16700100000000        2.50650300000000
C           56.66264999999999       -0.14823900000000        3.43006100000000
C           57.96147300000000       -0.01675100000000        2.76367600000000
N           57.78235600000000        0.04175300000000        1.34693100000000
C           59.14684499999999        0.06207400000000        3.40169900000000
C           60.44761000000000        0.18203600000000        2.69878900000000
C           61.71945100000000        0.44813300000000        3.38126100000000
C           62.67365900000000        0.43725700000000        2.47341500000000
N           60.61494900000000        0.01297000000000        1.42403500000000
C           62.01744100000000        0.16069800000000        1.20161700000000
C           62.63556700000000       -0.00261400000000        0.02118200000000
C           61.89269299999999       -0.27989900000000       -1.22763400000000
C           62.44552600000000       -0.74708100000000       -2.33995600000000
C           61.41085500000000       -0.77588700000000       -3.35511700000000
C           60.29548000000000       -0.32315500000000       -2.79438800000000
C           59.02803099999999       -0.08904700000000       -3.52678400000000
C           59.07400199999999       -0.00389600000000       -5.00803100000000
C           58.58272100000000       -1.06857700000000       -5.79035400000000
O           58.05841000000000       -2.19992900000000       -5.14245800000000
C           57.53348600000000       -3.34240200000000       -5.81016700000000
C           58.63506600000000       -0.97317200000000       -7.19320800000000
C           59.17407500000000        0.15949800000000       -7.80333600000000
C           59.66839600000000        1.20876500000000       -7.02871400000000
C           59.62444399999999        1.13747500000000       -5.62415300000000
O           60.11023899999999        2.17658200000000       -4.81287300000000
C           60.68343600000000        3.38418200000000       -5.30276900000000
C           57.85385800000000        0.06838800000000       -2.88844300000000
C           56.57056200000000        0.34752700000000       -3.52361800000000
C           55.67981600000000        0.37030900000000       -2.55370200000000
C           56.38334300000000        0.10941700000000       -1.29233900000000
N           57.65503900000000       -0.06639000000000       -1.48134000000000
N           60.50879300000000        0.01030800000000       -1.42338900000000
C           59.17623100000000        0.02213700000000        4.88285900000000
C           59.42271399999999       -1.19727700000000        5.54295600000000
O           59.62951600000000       -2.35405800000000        4.77277000000000
C           59.88661800000000       -3.64695700000000        5.31016600000000
C           59.45328399999999       -1.22444700000000        6.94925100000000
C           59.24433200000000       -0.05559000000000        7.68124400000000
C           59.00508600000000        1.15245700000000        7.02639800000000
C           58.97045500000000        1.20428300000000        5.62077700000000
O           58.73957700000000        2.40386900000000        4.92684900000000
C           58.52813399999999        3.66772000000000        5.54707900000000
H           54.66478099999999       -0.25288500000000        2.71633700000000
H           56.47875299999999       -0.21664500000000        4.49463700000000
H           61.86947299999999        0.62074600000000        4.43890900000000
H           63.72591400000000        0.59770600000000        2.66683100000000
H           63.48096600000000       -1.02616100000000       -2.48121500000000
H           61.53883700000000       -1.07258200000000       -4.38811400000000
H           56.66591199999999       -3.05107000000000       -6.43913300000000
H           57.19319300000000       -4.07933300000000       -5.05403000000000
H           58.32061000000000       -3.81368400000000       -6.43623600000000
H           58.26391899999999       -1.77062300000000       -7.82200500000000
H           59.21054800000000        0.22374100000000       -8.88337600000000
H           60.08134900000000        2.07219600000000       -7.53245500000000
H           60.98080300000000        4.01807400000000       -4.44296200000000
H           59.94057699999999        3.93946400000000       -5.91344400000000
H           61.58636600000000        3.15952800000000       -5.90891700000000
H           56.36439599999999        0.50734100000000       -4.57420000000000
H           54.62276900000000        0.55620700000000       -2.69008500000000
H           59.03271500000000       -3.97507100000000        5.93959900000000
H           60.01124899999999       -4.36700200000000        4.47556500000000
H           60.82122300000000       -3.63252600000000        5.90962000000000
H           59.63804200000000       -2.14415600000000        7.48694500000000
H           59.27019599999999       -0.08576600000000        8.76287300000000
H           58.85057100000000        2.04119700000000        7.62274100000000
H           59.41526700000000        3.94880900000000        6.15286000000000
H           57.62185700000000        3.63136400000000        6.18787000000000
H           58.37696100000000        4.43572300000000        4.76123600000000
Zn          74.62306399999999        0.00491800000000       -0.06837200000000
C           71.26758800000000       -0.00261400000000        0.02118200000000
C           71.92480700000000       -0.05056900000000        1.19460100000000
C           71.28365999999998       -0.16700100000000        2.50650300000000
C           72.22381700000000       -0.14823900000000        3.43006100000000
C           73.52263899999998       -0.01675100000000        2.76367600000000
N           73.34352199999998        0.04175300000000        1.34693100000000
C           74.70801200000000        0.06207400000000        3.40169900000000
C           76.00877599999998        0.18203600000000        2.69878900000000
C           77.28061800000000        0.44813300000000        3.38126100000000
C           78.23482600000000        0.43725700000000        2.47341500000000
N           76.17611599999999        0.01297000000000        1.42403500000000
C           77.57860800000000        0.16069800000000        1.20161700000000
C           78.19673400000001       -0.00261400000000        0.02118200000000
C           77.45386000000001       -0.27989900000000       -1.22763400000000
C           78.00669200000000       -0.74708100000000       -2.33995600000000
C           76.97202200000000       -0.77588700000000       -3.35511700000000
C           75.85664699999998       -0.32315500000000       -2.79438800000000
C           74.58919800000000       -0.08904700000000       -3.52678400000000
C           74.63516899999999       -0.00389600000000       -5.00803100000000
C           74.14388700000001       -1.06857700000000       -5.79035400000000
O           73.61957700000001       -2.19992900000000       -5.14245800000000
C           73.09465299999999       -3.34240200000000       -5.81016700000000
C           74.19623299999999       -0.97317200000000       -7.19320800000000
C           74.73524200000000        0.15949800000000       -7.80333600000000
C           75.22956300000000        1.20876500000000       -7.02871400000000
C           75.18561099999999        1.13747500000000       -5.62415300000000
O           75.67140599999999        2.17658200000000       -4.81287300000000
C           76.24460300000000        3.38418200000000       -5.30276900000000
C           73.41502499999999        0.06838800000000       -2.88844300000000
C           72.13172800000000        0.34752700000000       -3.52361800000000
C           71.24098299999999        0.37030900000000       -2.55370200000000
C           71.94450999999999        0.10941700000000       -1.29233900000000
N           73.21620499999999       -0.06639000000000       -1.48134000000000
N           76.06995999999999        0.01030800000000       -1.42338900000000
C           74.73739700000000        0.02213700000000        4.88285900000000
C           74.98388099999998       -1.19727700000000        5.54295600000000
O           75.19068299999999       -2.35405800000000        4.77277000000000
C           75.44778500000000       -3.64695700000000        5.31016600000000
C           75.01445000000000       -1.22444700000000        6.94925100000000
C           74.80549799999999       -0.05559000000000        7.68124400000000
C           74.56625299999999        1.15245700000000        7.02639800000000
C           74.53162099999999        1.20428300000000        5.62077700000000
O           74.30074399999999        2.40386900000000        4.92684900000000
C           74.08930100000001        3.66772000000000        5.54707900000000
H           70.22594800000000       -0.25288500000000        2.71633700000000
H           72.03991900000000       -0.21664500000000        4.49463700000000
H           77.43064000000000        0.62074600000000        4.43890900000000
H           79.28708100000000        0.59770600000000        2.66683100000000
H           79.04213200000000       -1.02616100000000       -2.48121500000000
H           77.10000400000000       -1.07258200000000       -4.38811400000000
H           72.22707800000001       -3.05107000000000       -6.43913300000000
H           72.75435899999999       -4.07933300000000       -5.05403000000000
H           73.88177700000000       -3.81368400000000       -6.43623600000000
H           73.82508600000000       -1.77062300000000       -7.82200500000000
H           74.77171500000000        0.22374100000000       -8.88337600000000
H           75.64251599999999        2.07219600000000       -7.53245500000000
H           76.54196899999999        4.01807400000000       -4.44296200000000
H           75.50174400000000        3.93946400000000       -5.91344400000000
H           77.14753299999998        3.15952800000000       -5.90891700000000
H           71.92556200000000        0.50734100000000       -4.57420000000000
H           70.18393600000000        0.55620700000000       -2.69008500000000
H           74.59388199999999       -3.97507100000000        5.93959900000000
H           75.57241500000001       -4.36700200000000        4.47556500000000
H           76.38239000000000       -3.63252600000000        5.90962000000000
H           75.19920900000000       -2.14415600000000        7.48694500000000
H           74.83136300000000       -0.08576600000000        8.76287300000000
H           74.41173800000000        2.04119700000000        7.62274100000000
H           74.97643400000000        3.94880900000000        6.15286000000000
H           73.18302400000000        3.63136400000000        6.18787000000000
H           73.93812800000001        4.43572300000000        4.76123600000000
304
 energy: -528.046451659971 gnorm: 0.596523199498 xtb: 6.5.1 (b24c23e)
Zn          42.37251382789656       -0.01756186425505       -0.04006658894635
C           39.02648940340050        0.10358580617721        0.04276489244052
C           39.69930711967982        0.89748702737729        0.90357142454109
C           39.04765506745128        1.77244042670870        1.86730783301708
C           40.00059604016151        2.42722406564222        2.52301255286072
C           41.29454182774806        1.99081150366166        1.99250806901128
N           41.10033186637394        1.02748778986997        0.98014992880257
C           42.50075103831777        2.47055586459549        2.39543334960086
C           43.77912328255055        2.02766852142549        1.83446538325937
C           45.06786165761689        2.64166936810665        2.15413887952376
C           46.01099442144314        1.97869231930833        1.48878590645473
N           43.93061138077955        1.02261335992476        1.00379779569993
C           45.32982881604557        0.93416716364146        0.74406019395384
C           45.92586630047789       -0.00595381288476       -0.02234651558084
C           45.15518192556961       -1.03326840924900       -0.73493918699421
C           45.70296821912557       -2.15373711115262       -1.26359035210074
C           44.66856053904335       -2.86475198449839       -1.94608373645302
C           43.52462036259422       -2.15121542367114       -1.80926388265233
C           42.24774178197706       -2.52323454126218       -2.43624209245050
C           42.24558135317739       -3.53621961607718       -3.52838360074206
C           42.77255815174061       -3.19664070450854       -4.79533723917544
O           43.26558737417675       -1.90336128429708       -4.98800142876733
C           43.82995993166279       -1.43187702105649       -6.20996573797148
C           42.78131543412337       -4.16186055260818       -5.81500054078621
C           42.27707703520010       -5.43906246923017       -5.58110092381489
C           41.76017066606199       -5.77809842181833       -4.33272472295083
C           41.74054103572221       -4.83587540966172       -3.29189484714560
O           41.24509006347589       -5.13935029154910       -2.02021555366998
C           40.69701276510619       -6.40363506776793       -1.65222229038681
C           41.07402232318780       -1.96624299996222       -2.05909038898573
C           39.76449006499952       -2.25015244737977       -2.62828761618717
C           38.89294269726806       -1.52511647833204       -1.92859464015345
C           39.64450860381664       -0.77876455170531       -0.92689849587579
N           40.92769711021762       -1.03547255537674       -1.00230762340775
N           43.76691463888410       -0.98444288716546       -1.04052854309524
C           42.53614459190396        3.51266137166155        3.45356114956968
C           42.66522151134739        3.13152779995151        4.80718773288303
O           42.74943523229333        1.76992159721539        5.11257261078842
C           42.87136374685988        1.24998324697117        6.43541532602441
C           42.70431207814383        4.12708647062443        5.79628891338376
C           42.61768354722972        5.47264458895378        5.44487960331111
C           42.49280230452611        5.84978812668025        4.10924802967413
C           42.45149975547442        4.87681625320802        3.09810792303817
O           42.33156590644867        5.20824300169188        1.74506960546701
C           42.25257336619204        6.54374543882164        1.24994201568006
H           37.94273060715837        0.13305986652013        0.07237867287317
H           37.98501171219174        1.88759334754988        2.03304683715475
H           39.81822932478476        3.15517426960979        3.30134885297878
H           45.24892152374475        3.47982792351055        2.80767865442744
H           47.06901482304534        2.19493295877303        1.52514497039756
H           46.74027933096798       -2.43880280645335       -1.19468724092719
H           44.77404333009763       -3.78897157539638       -2.49325824484471
H           43.07917507729267       -1.47550245546171       -7.02261677435686
H           44.14389210917955       -0.37728296762354       -6.07796104197896
H           44.72090391879846       -2.03133723708240       -6.47923206163585
H           43.17770233324070       -3.93284637212719       -6.79576246220664
H           42.28957703623302       -6.17712010815336       -6.37727530742681
H           41.38066655303010       -6.78073119161661       -4.18441555048833
H           40.37927221029602       -6.36284984727661       -0.59154084709618
H           39.81086981983349       -6.63445661726913       -2.27459570263080
H           41.45817616355836       -7.20059315811894       -1.76036902278693
H           39.51606263493210       -2.91238153603787       -3.44650272475725
H           37.82672467664679       -1.50464068575629       -2.08741064950312
H           42.91867054260477        0.14420373077968        6.38412790574741
H           41.99108327171560        1.53562672909440        7.04339704303291
H           43.80107083334346        1.61977083863407        6.91021484916012
H           42.80075660581788        3.86960114435385        6.84318521357555
H           42.64855352180002        6.23401024480449        6.21837672231586
H           42.42977303917174        6.90382953689641        3.87167996997395
H           43.16720795725288        7.10847316636759        1.51693039219745
H           42.16895816391707        6.51324768541247        0.14550579349881
H           41.35641700323141        7.05179028897260        1.65585688235032
Zn          91.50003733564070        0.02050071521891        0.00385240564965
C           94.84596243324098       -0.04429815162987       -0.12785708245015
C           94.17318830515372       -0.78358172209688       -1.03596415159010
C           94.82481160029393       -1.61326867756705       -2.03895879968393
C           93.87188198816419       -2.16930205023451       -2.78022735671709
C           92.57794095047944       -1.70614612307613       -2.27284327327393