      -----------------------------------------------------------      
     |                   =====================                   |     
     |                           x T B                           |     
     |                   =====================                   |     
     |                         S. Grimme                         |     
     |          Mulliken Center for Theoretical Chemistry        |     
     |                    University of Bonn                     |     
      -----------------------------------------------------------      

   * xtb version 6.5.1 (b24c23e) compiled by 'conda@728c89f4b128' on 2022-07-12

   xtb is free software: you can redistribute it and/or modify it under
   the terms of the GNU Lesser General Public License as published by
   the Free Software Foundation, either version 3 of the License, or
   (at your option) any later version.
   
   xtb is distributed in the hope that it will be useful,
   but WITHOUT ANY WARRANTY; without even the implied warranty of
   MERCHANTABILITY or FITNESS FOR A PARTICULAR PURPOSE.  See the
   GNU Lesser General Public License for more details.
   
   Cite this work as:
   * C. Bannwarth, E. Caldeweyher, S. Ehlert, A. Hansen, P. Pracht,
     J. Seibert, S. Spicher, S. Grimme, WIREs Comput. Mol. Sci., 2020, 11,
     e01493. DOI: 10.1002/wcms.1493
   
   for GFN2-xTB:
   * C. Bannwarth, S. Ehlert and S. Grimme., J. Chem. Theory Comput., 2019,
     15, 1652-1671. DOI: 10.1021/acs.jctc.8b01176
   for GFN1-xTB:
   * S. Grimme, C. Bannwarth, P. Shushkov, J. Chem. Theory Comput., 2017,
     13, 1989-2009. DOI: 10.1021/acs.jctc.7b00118
   for GFN0-xTB:
   * P. Pracht, E. Caldeweyher, S. Ehlert, S. Grimme, ChemRxiv, 2019, preprint.
     DOI: 10.26434/chemrxiv.8326202.v1
   for GFN-FF:
   * S. Spicher and S. Grimme, Angew. Chem. Int. Ed., 2020, 59, 15665-15673.
     DOI: 10.1002/anie.202004239
   
   for ALPB and GBSA implicit solvation:
   * S. Ehlert, M. Stahn, S. Spicher, S. Grimme, J. Chem. Theory Comput.,
     2021, 17, 4250-4261. DOI: 10.1021/acs.jctc.1c00471
   
   for DFT-D4:
   * E. Caldeweyher, C. Bannwarth and S. Grimme, J. Chem. Phys., 2017,
     147, 034112. DOI: 10.1063/1.4993215
   * E. Caldeweyher, S. Ehlert, A. Hansen, H. Neugebauer, S. Spicher,
     C. Bannwarth and S. Grimme, J. Chem. Phys., 2019, 150, 154122.
     DOI: 10.1063/1.5090222
   * E. Caldeweyher, J.-M. Mewes, S. Ehlert and S. Grimme, Phys. Chem. Chem. Phys.
     2020, 22, 8499-8512. DOI: 10.1039/D0CP00502A
   
   for sTDA-xTB:
   * S. Grimme and C. Bannwarth, J. Chem. Phys., 2016, 145, 054103.
     DOI: 10.1063/1.4959605
   
   in the mass-spec context:
   * V. Asgeirsson, C. Bauer and S. Grimme, Chem. Sci., 2017, 8, 4879.
     DOI: 10.1039/c7sc00601b
   * J. Koopman and S. Grimme, ACS Omega 2019, 4, 12, 15120-15133.
     DOI: 10.1021/acsomega.9b02011
   
   for metadynamics refer to:
   * S. Grimme, J. Chem. Theory Comput., 2019, 155, 2847-2862
     DOI: 10.1021/acs.jctc.9b00143
   
   for SPH calculations refer to:
   * S. Spicher and S. Grimme, J. Chem. Theory Comput., 2021, 17, 1701-1714
     DOI: 10.1021/acs.jctc.0c01306
   
   with help from (in alphabetical order)
   P. Atkinson, C. Bannwarth, F. Bohle, G. Brandenburg, E. Caldeweyher
   M. Checinski, S. Dohm, S. Ehlert, S. Ehrlich, I. Gerasimov, C. Hölzer
   A. Katbashev, J. Koopman, C. Lavigne, S. Lehtola, F. März, M. Müller,
   F. Musil, H. Neugebauer, J. Pisarek, C. Plett, P. Pracht, F. Pultar,
   J. Seibert, P. Shushkov, S. Spicher, M. Stahn, M. Steiner, T. Strunk,
   J. Stückrath, T. Rose, and J. Unsleber
   
 * started run on 2022/07/30 at 02:58:02.754     

           -------------------------------------------------
          |                Calculation Setup                |
           -------------------------------------------------

          program call               : xtb Co_PhOH_C8_4.xyz --gfn 1 --opt -T 48
          hostname                   : cx3-15-15.cx3.hpc.ic.ac.uk
          coordinate file            : Co_PhOH_C8_4.xyz
          omp threads                :                     1

   ID    Z sym.   atoms
    1   27 Co     1, 59, 141, 198
    2    6 C      2-6, 8-12, 14-18, 20-25, 27-31, 33-38, 60-64, 66-70, 72-76,
                  78-83, 85-89, 91-96, 117-140, 142-146, 148-152, 154-158,
                  160-165, 167-171, 173-178, 199-203, 205-209, 211-215,
                  217-222, 224-228, 230-235
    3    7 N      7, 19, 26, 39, 65, 77, 84, 97, 147, 159, 166, 179, 204,
                  216, 223, 236
    4    8 O      13, 32, 71, 90, 153, 172, 210, 229
    5    1 H      40-58, 98-116, 180-197, 237-254

molecular fragmentation (1/2 indicates fragments):
111111111111111111111111111111111111111111111111111111111122222222222222
222222222222222222222222222222222222222222222222222222222222222222222222
222222222222222222222222222222222222222222222222222222222222222222222222
22222222222222222222222222222222222222
# atoms in fragment 1/2:    58   196
 fragment masses (1/2) :      550.45     1937.60
CMA distance (Bohr)    :  69.384
constraining FC (au)   :  0.0500
########################################################################
[WARNING] Please study the warnings concerning your input carefully
-1- prog_main_parseArguments: Unknown option '-T' provided
########################################################################

           -------------------------------------------------
          |                 G F N 1 - x T B                 |
           -------------------------------------------------

        Reference                      10.1021/acs.jctc.7b00118
      * Hamiltonian:
        H0-scaling (s, p, d)           1.850000    2.250000    2.000000
        zeta-weighting                 0.000000
      * Dispersion:
        s8                             2.400000
        a1                             0.630000
        a2                             5.000000
        s9                             0.000000
      * Repulsion:
        kExp                           1.500000
        rExp                           1.000000
      * Coulomb:
        alpha                          2.000000
        third order                    atomic
        anisotropic                    false
      * Halogen bond correction:
        rad-scale                      1.300000
        damping                        0.440000


          ...................................................
          :                      SETUP                      :
          :.................................................:
          :  # basis functions                 892          :
          :  # atomic orbitals                 888          :
          :  # shells                          512          :
          :  # electrons                       846          :
          :  # halogen bonds                     0          :
          :  max. iterations                   250          :
          :  Hamiltonian                  GFN1-xTB          :
          :  restarted?                      false          :
          :  GBSA solvation                  false          :
          :  PC potential                    false          :
          :  electronic temp.          300.0000000     K    :
          :  accuracy                    1.0000000          :
          :  -> integral cutoff          0.2500000E+02      :
          :  -> integral neglect         0.1000000E-07      :
          :  -> SCF convergence          0.1000000E-05 Eh   :
          :  -> wf. convergence          0.2000000E-04 e    :
          :  Broyden damping             0.4000000          :
          ...................................................

 iter      E             dE          RMSdq      gap      omega  full diag
   1   -467.6370389 -0.467637E+03  0.111E+01    0.01       0.0  T
   2   -404.2628485  0.633742E+02  0.120E+01    0.02       1.0  T
   3   -446.5252367 -0.422624E+02  0.743E+00    0.07       1.0  T
   4   -210.5483749  0.235977E+03  0.100E+01    0.03       1.0  T
   5    252.0198748  0.462568E+03  0.119E+01    0.05       1.0  T
   6   -135.7517788 -0.387772E+03  0.890E+00    0.11       1.0  T
   7   -460.9399446 -0.325188E+03  0.462E+00    0.12       1.0  T
   8   -459.5259077  0.141404E+01  0.416E+00    0.05       1.0  T
   9   -465.5999080 -0.607400E+01  0.356E+00    0.13       1.0  T
  10   -467.0763290 -0.147642E+01  0.315E+00    0.21       1.0  T
  11   -467.5653532 -0.489024E+00  0.303E+00    0.03       1.0  T
  12   -466.9834572  0.581896E+00  0.296E+00    0.20       1.0  T
  13   -465.5682037  0.141525E+01  0.290E+00    0.07       1.0  T
  14   -466.5634515 -0.995248E+00  0.261E+00    0.10       1.0  T
  15   -466.6495547 -0.861032E-01  0.244E+00    0.06       1.0  T
  16   -464.6630965  0.198646E+01  0.229E+00    0.06       1.0  T
  17   -466.3627538 -0.169966E+01  0.213E+00    0.02       1.0  T
  18   -467.3446240 -0.981870E+00  0.161E+00    0.01       1.0  T
  19   -465.5721184  0.177251E+01  0.163E+00    0.06       1.0  T
  20   -465.4364973  0.135621E+00  0.150E+00    0.02       1.0  T
  21   -465.3797328  0.567645E-01  0.149E+00    0.01       1.0  T
  22   -464.2035803  0.117615E+01  0.167E+00    0.06       1.0  T
  23   -466.0127659 -0.180919E+01  0.147E+00    0.02       1.0  T
  24   -466.7101825 -0.697417E+00  0.177E+00    0.01       1.0  T
  25   -468.4345929 -0.172441E+01  0.123E+00    0.12       1.0  T
  26   -469.4391280 -0.100454E+01  0.954E-01    0.13       1.0  T
  27   -469.6987174 -0.259589E+00  0.662E-01    0.11       1.0  T
  28   -469.7233575 -0.246401E-01  0.639E-01    0.12       1.0  T
  29   -467.9969510  0.172641E+01  0.178E+00    0.09       1.0  T
  30   -468.1895724 -0.192621E+00  0.170E+00    0.07       1.0  T
  31   -468.3694729 -0.179901E+00  0.163E+00    0.05       1.0  T
  32   -468.7113083 -0.341835E+00  0.144E+00    0.06       1.0  T
  33   -469.1101150 -0.398807E+00  0.126E+00    0.09       1.0  T
  34   -469.3421242 -0.232009E+00  0.108E+00    0.09       1.0  T
  35   -469.4563623 -0.114238E+00  0.996E-01    0.08       1.0  T
  36   -469.2846258  0.171737E+00  0.121E+00    0.01       1.0  T
  37   -469.5956940 -0.311068E+00  0.840E-01    0.03       1.0  T
  38   -469.6310371 -0.353431E-01  0.821E-01    0.03       1.0  T
  39   -469.6439017 -0.128646E-01  0.847E-01    0.04       1.0  T
  40   -470.0371579 -0.393256E+00  0.488E-01    0.01       1.0  T
  41   -469.7937470  0.243411E+00  0.761E-01    0.03       1.0  T
  42   -469.8893199 -0.955729E-01  0.644E-01    0.03       1.0  T
  43   -470.0929668 -0.203647E+00  0.380E-01    0.01       1.0  T
  44   -470.0156075  0.773593E-01  0.482E-01    0.02       1.0  T
  45   -470.0965217 -0.809141E-01  0.366E-01    0.03       1.0  T
  46   -470.1562888 -0.597672E-01  0.218E-01    0.03       1.0  T
  47   -470.1588771 -0.258823E-02  0.224E-01    0.01       1.0  T
  48   -470.1895737 -0.306966E-01  0.102E-01    0.01       1.0  T
  49   -470.1714997  0.180739E-01  0.180E-01    0.02       1.0  T
  50   -470.1915627 -0.200630E-01  0.101E-01    0.00       1.0  T
  51   -470.1819563  0.960644E-02  0.157E-01    0.02       1.0  T
  52   -470.1905549 -0.859862E-02  0.105E-01    0.01       1.0  T
  53   -470.1922297 -0.167479E-02  0.887E-02    0.02       1.0  T
  54   -470.1899582  0.227152E-02  0.104E-01    0.02       1.0  T
  55   -470.1928133 -0.285510E-02  0.804E-02    0.02       1.0  T
  56   -470.1968542 -0.404091E-02  0.220E-02    0.01       1.0  T
  57   -470.1969703 -0.116091E-03  0.172E-02    0.01       1.0  T
  58   -470.1967986  0.171707E-03  0.227E-02    0.00       1.0  T
  59   -470.1967027  0.958783E-04  0.267E-02    0.00       1.0  T
  60   -470.1969739 -0.271229E-03  0.169E-02    0.01       1.0  T
  61   -470.1969081  0.657687E-04  0.190E-02    0.01       1.0  T
  62   -470.1970808 -0.172677E-03  0.941E-03    0.01       1.0  T
  63   -470.1970896 -0.879526E-05  0.853E-03    0.01       1.0  T
  64   -470.1969714  0.118175E-03  0.138E-02    0.01       1.0  T
  65   -470.1968881  0.833395E-04  0.176E-02    0.01       1.0  T
  66   -470.1970715 -0.183410E-03  0.836E-03    0.01       1.0  T
  67   -470.1971141 -0.425853E-04  0.480E-03    0.01       1.3  T
  68   -470.1971269 -0.128276E-04  0.332E-03    0.01       1.9  T
  69   -470.1971231  0.386224E-05  0.442E-03    0.01       1.4  T
  70   -470.1971214  0.162282E-05  0.449E-03    0.01       1.4  T
  71   -470.1971301 -0.868417E-05  0.230E-03    0.01       2.7  T
  72   -470.1971318 -0.163638E-05  0.148E-03    0.01       4.2  T
  73   -470.1971324 -0.617169E-06  0.930E-04    0.01       6.7  T
  74   -470.1971329 -0.535449E-06  0.373E-04    0.01      16.8  T
  75   -470.1971329  0.298454E-07  0.452E-04    0.01      13.9  T
  76   -470.1971329 -0.613974E-07  0.324E-04    0.01      19.4  T
  77   -470.1971330 -0.212866E-07  0.262E-04    0.01      23.9  T
  78   -470.1971330 -0.253814E-07  0.124E-04    0.01      50.4  T
  79   -470.1971330  0.534953E-08  0.151E-04    0.01      41.6  T

   *** convergence criteria satisfied after 79 iterations ***

         #    Occupation            Energy/Eh            Energy/eV
      -------------------------------------------------------------
         1        2.0000           -0.7968695             -21.6839
       ...           ...                  ...                  ...
       417        1.9995           -0.3799699             -10.3395
       418        1.9668           -0.3759287             -10.2295
       419        1.9381           -0.3753223             -10.2130
       420        1.8983           -0.3748302             -10.1996
       421        1.7653           -0.3739671             -10.1762
       422        1.5407           -0.3731999             -10.1553
       423        1.4432           -0.3729548             -10.1486 (HOMO)
       424        1.3239           -0.3726883             -10.1414 (LUMO)
       425        0.1198           -0.3694341             -10.0528
       426        0.0043           -0.3662224              -9.9654
       427        0.0001           -0.3625109              -9.8644
       428        0.0001           -0.3621386              -9.8543
       ...           ...                  ...                  ...
       888                          2.4086701              65.5433
      -------------------------------------------------------------
                  HL-Gap            0.0002665 Eh            0.0073 eV
             Fermi-level           -0.3720500 Eh          -10.1240 eV

 SCC (total)                   0 d,  0 h,  0 min, 22.900 sec
 SCC setup                      ...        0 min,  0.019 sec (  0.085%)
 Dispersion                     ...        0 min,  0.011 sec (  0.047%)
 classical contributions        ...        0 min,  0.003 sec (  0.013%)
 integral evaluation            ...        0 min,  0.314 sec (  1.370%)
 iterations                     ...        0 min, 21.859 sec ( 95.454%)
 molecular gradient             ...        0 min,  0.637 sec (  2.781%)
 printout                       ...        0 min,  0.058 sec (  0.251%)

         :::::::::::::::::::::::::::::::::::::::::::::::::::::
         ::                     SUMMARY                     ::
         :::::::::::::::::::::::::::::::::::::::::::::::::::::
         :: total energy            -461.938637247729 Eh    ::
         :: gradient norm              1.869477409910 Eh/a0 ::
         :: HOMO-LUMO gap              0.007252200828 eV    ::
         ::.................................................::
         :: SCC energy              -470.197132982343 Eh    ::
         :: -> electrostatic           0.553262666082 Eh    ::
         :: repulsion energy           8.479152483444 Eh    ::
         :: dispersion energy         -0.220656748830 Eh    ::
         :: halogen bond corr.         0.000000000000 Eh    ::
         :: add. restraining           0.000000000000 Eh    ::
         :: total charge               0.000000000000 e     ::
         :::::::::::::::::::::::::::::::::::::::::::::::::::::

      ----------------------------------------------------------- 
     |                   =====================                   |
     |                        A N C O P T                        |
     |                   =====================                   |
     |               Approximate Normal Coordinate               |
     |                Rational Function Optimizer                |
      ----------------------------------------------------------- 

          ...................................................
          :                      SETUP                      :
          :.................................................:
          :   optimization level            normal          :
          :   max. optcycles                   762          :
          :   ANC micro-cycles                  20          :
          :   degrees of freedom               756          :
          :.................................................:
          :   RF solver                   davidson          :
          :   write xtbopt.log                true          :
          :   linear?                        false          :
          :   energy convergence         0.5000000E-05 Eh   :
          :   grad. convergence          0.1000000E-02 Eh/α :
          :   maximium RF displ.         1.0000000          :
          :   Hlow (freq-cutoff)         0.1000000E-01      :
          :   Hmax (freq-cutoff)         5.0000000          :
          :   S6 in model hess.         20.0000000          :
          ...................................................

generating ANC from model Hessian ...
Using Lindh-Hessian (1995)
 Shifting diagonal of input Hessian by    1.0029039674021134E-002
 Lowest  eigenvalues of input Hessian
    0.010000    0.010005    0.010008    0.010013    0.010015    0.010016
    0.010019    0.010022    0.010025    0.010026    0.010028    0.000000
    0.000000    0.000000    0.000000    0.000000    0.000000    0.010032
 Highest eigenvalues
    3.097892    3.169110    3.238149    3.275586    3.529392    3.529621


........................................................................
.............................. CYCLE    1 ..............................
........................................................................
   1   -470.1971330 -0.470197E+03  0.132E-04    0.01       0.0  T
   2   -470.1970758  0.571703E-04  0.894E-03    0.01       1.0  T
   3   -470.1971325 -0.567323E-04  0.808E-04    0.01       7.8  T
   4   -470.1971320  0.588934E-06  0.122E-03    0.01       5.1  T
   5   -470.1971298  0.214372E-05  0.214E-03    0.01       2.9  T
   6   -470.1971322 -0.233619E-05  0.103E-03    0.01       6.1  T
   7   -470.1971328 -0.640128E-06  0.534E-04    0.01      11.7  T
   8   -470.1971330 -0.189845E-06  0.165E-04    0.01      38.0  T
   9   -470.1971330  0.264237E-08  0.164E-04    0.01      38.2  T
     SCC iter.                  ...        0 min,  2.499 sec
     gradient                   ...        0 min,  0.632 sec
 * total energy  :  -461.9386372 Eh     change        0.3874732E-08 Eh
   gradient norm :     1.8694778 Eh/α   predicted     0.0000000E+00 (-100.00%)
   displ. norm   :     0.5472066 α      lambda       -0.9675643E+00
   maximum displ.:     0.2301765 α      in ANC's #752, #753, #748, ...

........................................................................
.............................. CYCLE    2 ..............................
........................................................................
   1   -470.1092042 -0.470109E+03  0.345E-01    0.01       0.0  T
   2   -468.6711484  0.143806E+01  0.134E+00    0.12       1.0  T
   3   -469.4892007 -0.818052E+00  0.850E-01    0.02       1.0  T
   4   -469.2527852  0.236416E+00  0.115E+00    0.07       1.0  T
   5   -468.8000968  0.452688E+00  0.146E+00    0.10       1.0  T
   6   -469.9816395 -0.118154E+01  0.530E-01    0.05       1.0  T
   7   -468.1503953  0.183124E+01  0.161E+00    0.09       1.0  T
   8   -469.8064733 -0.165608E+01  0.698E-01    0.03       1.0  T
   9   -469.7499561  0.565171E-01  0.738E-01    0.07       1.0  T
  10   -469.2789797  0.470976E+00  0.109E+00    0.01       1.0  T
  11   -469.6598300 -0.380850E+00  0.866E-01    0.07       1.0  T
  12   -470.0037891 -0.343959E+00  0.496E-01    0.03       1.0  T
  13   -470.0090794 -0.529029E-02  0.464E-01    0.00       1.0  T
  14   -470.0341020 -0.250227E-01  0.427E-01    0.01       1.0  T
  15   -469.8392581  0.194844E+00  0.707E-01    0.03       1.0  T
  16   -469.9804933 -0.141235E+00  0.525E-01    0.01       1.0  T
  17   -469.8234223  0.157071E+00  0.710E-01    0.05       1.0  T
  18   -470.0418581 -0.218436E+00  0.405E-01    0.01       1.0  T
  19   -470.1030883 -0.612301E-01  0.282E-01    0.01       1.0  T
  20   -470.1409248 -0.378365E-01  0.178E-01    0.00       1.0  T
  21   -470.1423929 -0.146815E-02  0.172E-01    0.01       1.0  T
  22   -470.1525187 -0.101258E-01  0.126E-01    0.00       1.0  T
  23   -470.1589946 -0.647589E-02  0.817E-02    0.00       1.0  T
  24   -470.1618267 -0.283211E-02  0.520E-02    0.00       1.0  T
  25   -470.1632277 -0.140102E-02  0.271E-02    0.00       1.0  T
  26   -470.1633210 -0.932192E-04  0.249E-02    0.00       1.0  T
  27   -470.1636049 -0.283933E-03  0.144E-02    0.00       1.0  T
  28   -470.1637366 -0.131743E-03  0.478E-03    0.00       1.3  T
  29   -470.1637468 -0.101312E-04  0.323E-03    0.00       1.9  T
  30   -470.1637488 -0.199945E-05  0.278E-03    0.00       2.3  T
  31   -470.1637537 -0.497880E-05  0.783E-04    0.00       8.0  T
  32   -470.1637538 -0.106265E-06  0.693E-04    0.00       9.1  T
  33   -470.1637541 -0.263009E-06  0.244E-04    0.00      25.8  T
  34   -470.1637541 -0.131355E-07  0.191E-04    0.00      32.9  T
  35   -470.1637541 -0.234785E-07  0.451E-05    0.00     139.2  T
     SCC iter.                  ...        0 min,  9.734 sec
     gradient                   ...        0 min,  0.645 sec
 * total energy  :  -462.5836892 Eh     change       -0.6450519E+00 Eh
   gradient norm :     0.7432393 Eh/α   predicted    -0.6286472E+00 (  -2.54%)
   displ. norm   :     0.5284228 α      lambda       -0.3217617E+00
   maximum displ.:     0.1220301 α      in ANC's #753, #754, #204, ...

........................................................................
.............................. CYCLE    3 ..............................
........................................................................
   1   -470.2589625 -0.470259E+03  0.363E-01    0.01       0.0  T
   2   -469.3127593  0.946203E+00  0.130E+00    0.03       1.0  T
   3   -469.8498361 -0.537077E+00  0.863E-01    0.02       1.0  T
   4   -469.8054714  0.443647E-01  0.835E-01    0.05       1.0  T
   5   -469.5663921  0.239079E+00  0.108E+00    0.07       1.0  T
   6   -469.5198535  0.465386E-01  0.106E+00    0.09       1.0  T
   7   -470.0687343 -0.548881E+00  0.600E-01    0.02       1.0  T
   8   -470.2258776 -0.157143E+00  0.391E-01    0.04       1.0  T
   9   -470.2107133  0.151642E-01  0.409E-01    0.01       1.0  T
  10   -469.9878799  0.222833E+00  0.718E-01    0.04       1.0  T
  11   -470.2235346 -0.235655E+00  0.374E-01    0.01       1.0  T
  12   -470.2651760 -0.416414E-01  0.290E-01    0.00       1.0  T
  13   -470.3051979 -0.400219E-01  0.158E-01    0.01       1.0  T
  14   -470.3078243 -0.262640E-02  0.138E-01    0.01       1.0  T
  15   -470.3195267 -0.117024E-01  0.517E-02    0.00       1.0  T
  16   -470.3207652 -0.123853E-02  0.277E-02    0.00       1.0  T
  17   -470.3211125 -0.347225E-03  0.151E-02    0.00       1.0  T
  18   -470.3211056  0.683352E-05  0.150E-02    0.00       1.0  T
  19   -470.3211926 -0.869871E-04  0.914E-03    0.00       1.0  T
  20   -470.3212502 -0.576105E-04  0.426E-04    0.00      14.7  T
  21   -470.3212438  0.646035E-05  0.309E-03    0.00       2.0  T
  22   -470.3212489 -0.508618E-05  0.152E-03    0.00       4.1  T
  23   -470.3212499 -0.999285E-06  0.886E-04    0.00       7.1  T
  24   -470.3212503 -0.472365E-06  0.231E-04    0.00      27.2  T
  25   -470.3212504 -0.272342E-07  0.736E-05    0.00      85.2  T
  26   -470.3212504 -0.192546E-08  0.433E-05    0.00     144.9  T
     SCC iter.                  ...        0 min,  7.231 sec
     gradient                   ...        0 min,  0.638 sec
 * total energy  :  -462.8025829 Eh     change       -0.2188938E+00 Eh
   gradient norm :     0.2785791 Eh/α   predicted    -0.2058038E+00 (  -5.98%)
   displ. norm   :     0.6694157 α      lambda       -0.1321502E+00
   maximum displ.:     0.2575262 α      in ANC's #204, #208, #57, ...

........................................................................
.............................. CYCLE    4 ..............................
........................................................................
   1   -470.3710415 -0.470371E+03  0.249E-01    0.00       0.0  T
   2   -469.7329059  0.638136E+00  0.115E+00    0.12       1.0  T
   3   -469.4550460  0.277860E+00  0.117E+00    0.18       1.0  T
   4   -470.0117889 -0.556743E+00  0.767E-01    0.01       1.0  T
   5   -470.3446078 -0.332819E+00  0.293E-01    0.00       1.0  T
   6   -470.0508571  0.293751E+00  0.715E-01    0.04       1.0  T
   7   -470.2383656 -0.187508E+00  0.497E-01    0.00       1.0  T
   8   -470.1967404  0.416251E-01  0.551E-01    0.03       1.0  T
   9   -470.3654753 -0.168735E+00  0.224E-01    0.00       1.0  T
  10   -470.3566064  0.886882E-02  0.251E-01    0.02       1.0  T
  11   -470.3836308 -0.270244E-01  0.152E-01    0.00       1.0  T
  12   -470.3982230 -0.145922E-01  0.315E-02    0.00       1.0  T
  13   -470.3984219 -0.198808E-03  0.273E-02    0.00       1.0  T
  14   -470.3988604 -0.438535E-03  0.806E-03    0.00       1.0  T
  15   -470.3988185  0.418889E-04  0.115E-02    0.00       1.0  T
  16   -470.3989034 -0.849501E-04  0.196E-03    0.00       3.2  T
  17   -470.3989012  0.219794E-05  0.263E-03    0.00       2.4  T
  18   -470.3989059 -0.461640E-05  0.205E-04    0.00      30.5  T
  19   -470.3989057  0.197416E-06  0.581E-04    0.00      10.8  T
  20   -470.3989059 -0.183363E-06  0.262E-04    0.00      23.9  T
  21   -470.3989059 -0.117950E-07  0.220E-04    0.00      28.5  T
  22   -470.3989059 -0.314192E-07  0.276E-05    0.00     227.1  T
  23   -470.3989059  0.271712E-10  0.278E-05    0.00     225.5  T
     SCC iter.                  ...        0 min,  6.400 sec
     gradient                   ...        0 min,  0.638 sec
 * total energy  :  -462.9017371 Eh     change       -0.9915414E-01 Eh
   gradient norm :     0.1538497 Eh/α   predicted    -0.9568470E-01 (  -3.50%)
   displ. norm   :     0.7808091 α      lambda       -0.8559905E-01
   maximum displ.:     0.2899935 α      in ANC's #204, #57, #208, ...

........................................................................
.............................. CYCLE    5 ..............................
........................................................................
   1   -470.4012367 -0.470401E+03  0.212E-01    0.00       0.0  T
   2   -470.0987263  0.302510E+00  0.843E-01    0.01       1.0  T
   3   -469.8817398  0.216987E+00  0.878E-01    0.04       1.0  T
   4   -469.8597225  0.220173E-01  0.913E-01    0.04       1.0  T
   5   -470.0584462 -0.198724E+00  0.725E-01    0.03       1.0  T
   6   -470.0232054  0.352408E-01  0.744E-01    0.05       1.0  T
   7   -470.1922385 -0.169033E+00  0.558E-01    0.04       1.0  T
   8   -470.1414106  0.508280E-01  0.665E-01    0.01       1.0  T
   9   -470.0250636  0.116347E+00  0.749E-01    0.02       1.0  T
  10   -470.3879292 -0.362866E+00  0.223E-01    0.02       1.0  T
  11   -470.4108935 -0.229643E-01  0.110E-01    0.01       1.0  T
  12   -470.4166947 -0.580124E-02  0.590E-02    0.00       1.0  T
  13   -470.4164204  0.274257E-03  0.641E-02    0.01       1.0  T
  14   -470.4185854 -0.216497E-02  0.280E-02    0.00       1.0  T
  15   -470.4188142 -0.228788E-03  0.216E-02    0.00       1.0  T
  16   -470.4190325 -0.218280E-03  0.118E-02    0.00       1.0  T
  17   -470.4190829 -0.504146E-04  0.780E-03    0.00       1.0  T
  18   -470.4191233 -0.404019E-04  0.894E-04    0.00       7.0  T
  19   -470.4191237 -0.451824E-06  0.417E-04    0.00      15.1  T
  20   -470.4191233  0.437964E-06  0.921E-04    0.00       6.8  T
  21   -470.4191238 -0.448612E-06  0.434E-04    0.00      14.5  T
  22   -470.4191238 -0.888284E-07  0.199E-04    0.00      31.6  T
  23   -470.4191239 -0.225464E-07  0.503E-05    0.00     124.8  T
     SCC iter.                  ...        0 min,  6.396 sec
     gradient                   ...        0 min,  0.636 sec
 * total energy  :  -462.9721415 Eh     change       -0.7040441E-01 Eh
   gradient norm :     0.1139946 Eh/α   predicted    -0.6889280E-01 (  -2.15%)
   displ. norm   :     0.8758829 α      lambda       -0.7229266E-01
   maximum displ.:     0.2870776 α      in ANC's #57, #204, #142, ...

........................................................................
.............................. CYCLE    6 ..............................
........................................................................
   1   -470.3930511 -0.470393E+03  0.184E-01    0.00       0.0  T
   2   -469.5477631  0.845288E+00  0.115E+00    0.16       1.0  T
   3   -469.8808908 -0.333128E+00  0.867E-01    0.04       1.0  T
   4   -469.9700044 -0.891136E-01  0.809E-01    0.01       1.0  T
   5   -470.1973988 -0.227394E+00  0.550E-01    0.01       1.0  T
   6   -470.0912929  0.106106E+00  0.684E-01    0.04       1.0  T
   7   -470.2297595 -0.138467E+00  0.530E-01    0.03       1.0  T
   8   -470.3558142 -0.126055E+00  0.293E-01    0.01       1.0  T
   9   -470.3712381 -0.154239E-01  0.232E-01    0.00       1.0  T
  10   -470.3884814 -0.172433E-01  0.164E-01    0.00       1.0  T
  11   -470.3587265  0.297549E-01  0.265E-01    0.01       1.0  T
  12   -470.4020968 -0.433703E-01  0.802E-02    0.00       1.0  T
  13   -470.4057859 -0.368907E-02  0.265E-02    0.00       1.0  T
  14   -470.4058665 -0.806335E-04  0.259E-02    0.00       1.0  T
  15   -470.4062691 -0.402580E-03  0.581E-03    0.00       1.1  T
  16   -470.4062905 -0.214451E-04  0.131E-03    0.00       4.8  T
  17   -470.4062877  0.280157E-05  0.250E-03    0.00       2.5  T
  18   -470.4062911 -0.335492E-05  0.864E-04    0.00       7.3  T
  19   -470.4062915 -0.455483E-06  0.259E-04    0.00      24.2  T
  20   -470.4062916 -0.364411E-07  0.118E-04    0.00      53.1  T
  21   -470.4062916  0.694473E-08  0.158E-04    0.00      39.8  T
     SCC iter.                  ...        0 min,  5.847 sec
     gradient                   ...        0 min,  0.642 sec
 * total energy  :  -463.0399607 Eh     change       -0.6781926E-01 Eh
   gradient norm :     0.1088676 Eh/α   predicted    -0.6387693E-01 (  -5.81%)
   displ. norm   :     0.9370045 α      lambda       -0.7403176E-01
   maximum displ.:     0.3295528 α      in ANC's #57, #204, #142, ...

........................................................................
.............................. CYCLE    7 ..............................
........................................................................
   1   -470.3739277 -0.470374E+03  0.167E-01    0.00       0.0  T
   2   -469.4837562  0.890172E+00  0.117E+00    0.08       1.0  T
   3   -469.9045967 -0.420841E+00  0.815E-01    0.03       1.0  T
   4   -469.5058638  0.398733E+00  0.112E+00    0.04       1.0  T
   5   -470.3065568 -0.800693E+00  0.335E-01    0.01       1.0  T
   6   -470.1192801  0.187277E+00  0.642E-01    0.03       1.0  T
   7   -470.3228721 -0.203592E+00  0.313E-01    0.01       1.0  T
   8   -470.1897702  0.133102E+00  0.564E-01    0.01       1.0  T
   9   -470.3664991 -0.176729E+00  0.160E-01    0.01       1.0  T
  10   -470.3266966  0.398025E-01  0.295E-01    0.01       1.0  T
  11   -470.3816588 -0.549622E-01  0.595E-02    0.01       1.0  T
  12   -470.3796301  0.202872E-02  0.806E-02    0.01       1.0  T
  13   -470.3835033 -0.387321E-02  0.316E-02    0.00       1.0  T
  14   -470.3833790  0.124295E-03  0.355E-02    0.00       1.0  T
  15   -470.3840941 -0.715071E-03  0.117E-02    0.00       1.0  T
  16   -470.3841804 -0.863131E-04  0.342E-03    0.00       1.8  T
  17   -470.3841809 -0.552290E-06  0.337E-03    0.00       1.9  T
  18   -470.3841873 -0.633645E-05  0.145E-03    0.00       4.3  T
  19   -470.3841879 -0.590690E-06  0.113E-03    0.00       5.6  T
  20   -470.3841886 -0.695469E-06  0.508E-04    0.00      12.4  T
  21   -470.3841885  0.667836E-07  0.600E-04    0.00      10.5  T
  22   -470.3841887 -0.218541E-06  0.155E-04    0.00      40.5  T
  23   -470.3841887 -0.154955E-07  0.189E-05    0.00     331.8  T
     SCC iter.                  ...        0 min,  6.404 sec
     gradient                   ...        0 min,  0.635 sec
 * total energy  :  -463.1091794 Eh     change       -0.6921869E-01 Eh
   gradient norm :     0.1026950 Eh/α   predicted    -0.6951502E-01 (   0.43%)
   displ. norm   :     0.9056841 α      lambda       -0.6481519E-01
   maximum displ.:     0.3724317 α      in ANC's #57, #142, #204, ...

........................................................................
.............................. CYCLE    8 ..............................
........................................................................
   1   -470.3648308 -0.470365E+03  0.116E-01    0.00       0.0  T
   2   -469.2663421  0.109849E+01  0.126E+00    0.01       1.0  T
   3   -469.9691937 -0.702852E+00  0.815E-01    0.07       1.0  T
   4   -469.7455522  0.223642E+00  0.948E-01    0.06       1.0  T
   5   -470.2571371 -0.511585E+00  0.418E-01    0.00       1.0  T
   6   -470.2669157 -0.977858E-02  0.395E-01    0.00       1.0  T
   7   -470.3055233 -0.386076E-01  0.307E-01    0.02       1.0  T
   8   -470.3433896 -0.378663E-01  0.184E-01    0.01       1.0  T
   9   -470.0469609  0.296429E+00  0.697E-01    0.03       1.0  T
  10   -470.3022773 -0.255316E+00  0.311E-01    0.02       1.0  T
  11   -470.2984486  0.382870E-02  0.327E-01    0.01       1.0  T
  12   -470.3668636 -0.684150E-01  0.607E-02    0.00       1.0  T
  13   -470.3687194 -0.185577E-02  0.293E-02    0.00       1.0  T
  14   -470.3680871  0.632230E-03  0.428E-02    0.00       1.0  T
  15   -470.3690398 -0.952631E-03  0.192E-02    0.00       1.0  T
  16   -470.3692144 -0.174627E-03  0.981E-03    0.00       1.0  T
  17   -470.3692505 -0.361443E-04  0.623E-03    0.00       1.0  T
  18   -470.3692684 -0.178303E-04  0.338E-03    0.00       1.9  T
  19   -470.3692754 -0.702729E-05  0.829E-04    0.00       7.6  T
  20   -470.3692758 -0.406786E-06  0.301E-04    0.00      20.9  T
  21   -470.3692759 -0.534855E-07  0.105E-04    0.00      59.7  T
  22   -470.3692759 -0.214783E-08  0.839E-05    0.00      74.7  T
     SCC iter.                  ...        0 min,  6.125 sec
     gradient                   ...        0 min,  0.644 sec
 * total energy  :  -463.1613093 Eh     change       -0.5212983E-01 Eh
   gradient norm :     0.0893716 Eh/α   predicted    -0.5899045E-01 (  13.16%)
   displ. norm   :     0.7853342 α      lambda       -0.4197825E-01
   maximum displ.:     0.3953631 α      in ANC's #57, #18, #138, ...

........................................................................
.............................. CYCLE    9 ..............................
........................................................................
   1   -470.4057563 -0.470406E+03  0.499E-02    0.00       0.0  T
   2   -469.8381388  0.567618E+00  0.894E-01    0.04       1.0  T
   3   -470.1432553 -0.305117E+00  0.630E-01    0.04       1.0  T
   4   -470.2347778 -0.915224E-01  0.494E-01    0.00       1.0  T
   5   -470.1806703  0.541075E-01  0.582E-01    0.01       1.0  T
   6   -470.2526371 -0.719668E-01  0.492E-01    0.00       1.0  T
   7   -470.3464135 -0.937764E-01  0.300E-01    0.02       1.0  T
   8   -470.2961982  0.502153E-01  0.409E-01    0.02       1.0  T
   9   -470.3017802 -0.558204E-02  0.387E-01    0.02       1.0  T
  10   -470.3960889 -0.943087E-01  0.128E-01    0.00       1.0  T
  11   -470.4059005 -0.981157E-02  0.438E-02    0.00       1.0  T
  12   -470.4070437 -0.114322E-02  0.185E-02    0.00       1.0  T
  13   -470.4071860 -0.142255E-03  0.115E-02    0.00       1.0  T
  14   -470.4072605 -0.745706E-04  0.550E-03    0.00       1.1  T
  15   -470.4072645 -0.401561E-05  0.487E-03    0.00       1.3  T
  16   -470.4072807 -0.162011E-04  0.535E-04    0.00      11.7  T
  17   -470.4072806  0.178954E-06  0.731E-04    0.00       8.6  T
  18   -470.4072809 -0.331370E-06  0.242E-04    0.00      25.9  T
  19   -470.4072809 -0.563404E-08  0.223E-04    0.00      28.1  T
  20   -470.4072809 -0.325595E-07  0.361E-05    0.00     173.9  T
  21   -470.4072809 -0.399496E-09  0.273E-05    0.00     229.5  T
     SCC iter.                  ...        0 min,  5.854 sec
     gradient                   ...        0 min,  0.644 sec
 * total energy  :  -463.1951653 Eh     change       -0.3385602E-01 Eh
   gradient norm :     0.0731639 Eh/α   predicted    -0.3393422E-01 (   0.23%)
   displ. norm   :     0.8005514 α      lambda       -0.3704533E-01
   maximum displ.:     0.4389599 α      in ANC's #57, #18, #81, ...

........................................................................
.............................. CYCLE   10 ..............................
........................................................................
   1   -470.4723232 -0.470472E+03  0.809E-02    0.00       0.0  T
   2   -469.5187973  0.953526E+00  0.124E+00    0.15       1.0  T
   3   -470.2425379 -0.723741E+00  0.590E-01    0.00       1.0  T
   4   -470.1807330  0.618049E-01  0.648E-01    0.03       1.0  T
   5   -470.2846414 -0.103908E+00  0.527E-01    0.01       1.0  T
   6   -470.4134659 -0.128825E+00  0.304E-01    0.02       1.0  T
   7   -470.2725321  0.140934E+00  0.543E-01    0.04       1.0  T
   8   -470.3381776 -0.656455E-01  0.454E-01    0.03       1.0  T
   9   -470.4723309 -0.134153E+00  0.827E-02    0.00       1.0  T
  10   -470.4763652 -0.403424E-02  0.308E-02    0.00       1.0  T
  11   -470.4762508  0.114415E-03  0.328E-02    0.00       1.0  T
  12   -470.4768774 -0.626654E-03  0.135E-02    0.00       1.0  T
  13   -470.4769695 -0.920436E-04  0.726E-03    0.00       1.0  T
  14   -470.4769953 -0.258916E-04  0.384E-03    0.00       1.6  T
  15   -470.4770046 -0.922453E-05  0.113E-03    0.00       5.6  T
  16   -470.4770039  0.717442E-06  0.156E-03    0.00       4.0  T
  17   -470.4770050 -0.117639E-05  0.824E-04    0.00       7.6  T
  18   -470.4770054 -0.361962E-06  0.347E-04    0.00      18.1  T
  19   -470.4770055 -0.804478E-07  0.835E-05    0.00      75.1  T
  20   -470.4770055 -0.473995E-08  0.202E-05    0.00     310.9  T
     SCC iter.                  ...        0 min,  5.570 sec
     gradient                   ...        0 min,  0.640 sec
 * total energy  :  -463.2236153 Eh     change       -0.2845007E-01 Eh
   gradient norm :     0.0698536 Eh/α   predicted    -0.3039352E-01 (   6.83%)
   displ. norm   :     0.8276609 α      lambda       -0.2672933E-01
   maximum displ.:     0.5115417 α      in ANC's #57, #18, #81, ...

........................................................................
.............................. CYCLE   11 ..............................
........................................................................
   1   -470.5159562 -0.470516E+03  0.626E-02    0.00       0.0  T
   2   -469.6253957  0.890560E+00  0.118E+00    0.10       1.0  T
   3   -470.0814420 -0.456046E+00  0.771E-01    0.03       1.0  T
   4   -470.3949570 -0.313515E+00  0.428E-01    0.04       1.0  T
   5   -470.3769551  0.180020E-01  0.461E-01    0.02       1.0  T
   6   -470.1018394  0.275116E+00  0.775E-01    0.07       1.0  T
   7   -470.1988138 -0.969744E-01  0.682E-01    0.04       1.0  T
   8   -470.5176240 -0.318810E+00  0.542E-02    0.00       1.0  T
   9   -470.5133763  0.424771E-02  0.949E-02    0.00       1.0  T
  10   -470.5173684 -0.399212E-02  0.545E-02    0.00       1.0  T
  11   -470.5107319  0.663649E-02  0.112E-01    0.01       1.0  T
  12   -470.5187354 -0.800346E-02  0.304E-02    0.00       1.0  T
  13   -470.5191948 -0.459427E-03  0.152E-02    0.00       1.0  T
  14   -470.5192716 -0.768283E-04  0.108E-02    0.00       1.0  T
  15   -470.5193462 -0.745113E-04  0.311E-03    0.00       2.0  T
  16   -470.5193523 -0.611832E-05  0.916E-04    0.00       6.8  T
  17   -470.5193503  0.201041E-05  0.192E-03    0.00       3.3  T
  18   -470.5193526 -0.232639E-05  0.600E-04    0.00      10.5  T
  19   -470.5193528 -0.214790E-06  0.248E-04    0.00      25.3  T
  20   -470.5193528 -0.421336E-07  0.592E-05    0.00     105.9  T
  21   -470.5193529 -0.252277E-08  0.178E-05    0.00     351.6  T
     SCC iter.                  ...        0 min,  5.853 sec
     gradient                   ...        0 min,  0.639 sec
 * total energy  :  -463.2457885 Eh     change       -0.2217320E-01 Eh
   gradient norm :     0.0481965 Eh/α   predicted    -0.2251978E-01 (   1.56%)
   displ. norm   :     0.8509577 α      lambda       -0.2144229E-01
   maximum displ.:     0.5410987 α      in ANC's #57, #18, #55, ...

........................................................................
.............................. CYCLE   12 ..............................
........................................................................
   1   -470.5613178 -0.470561E+03  0.712E-02    0.01       0.0  T
   2   -469.6450809  0.916237E+00  0.121E+00    0.13       1.0  T
   3   -470.1289705 -0.483890E+00  0.768E-01    0.03       1.0  T
   4   -470.3260428 -0.197072E+00  0.590E-01    0.00       1.0  T
   5   -470.5173529 -0.191310E+00  0.268E-01    0.02       1.0  T
   6   -470.3449110  0.172442E+00  0.561E-01    0.01       1.0  T
   7   -470.1751726  0.169738E+00  0.750E-01    0.08       1.0  T
   8   -470.5601168 -0.384944E+00  0.839E-02    0.01       1.0  T
   9   -470.5379961  0.221207E-01  0.201E-01    0.01       1.0  T
  10   -470.5620047 -0.240086E-01  0.691E-02    0.00       1.0  T
  11   -470.5650116 -0.300689E-02  0.224E-02    0.00       1.0  T
  12   -470.5652051 -0.193500E-03  0.154E-02    0.00       1.0  T
  13   -470.5652400 -0.349770E-04  0.133E-02    0.00       1.0  T
  14   -470.5653578 -0.117757E-03  0.257E-03    0.00       2.4  T
  15   -470.5653618 -0.397513E-05  0.672E-04    0.00       9.3  T
  16   -470.5653616  0.161278E-06  0.828E-04    0.00       7.6  T
  17   -470.5653611  0.517267E-06  0.120E-03    0.00       5.2  T
  18   -470.5653621 -0.959409E-06  0.285E-04    0.00      22.0  T
  19   -470.5653621 -0.533259E-07  0.869E-05    0.00      72.2  T
  20   -470.5653621 -0.432243E-08  0.397E-05    0.00     158.1  T
     SCC iter.                  ...        0 min,  5.572 sec
     gradient                   ...        0 min,  0.640 sec
 * total energy  :  -463.2632867 Eh     change       -0.1749815E-01 Eh
   gradient norm :     0.0398762 Eh/α   predicted    -0.1848465E-01 (   5.64%)
   displ. norm   :     0.8994555 α      lambda       -0.2119392E-01
   maximum displ.:     0.5348041 α      in ANC's #57, #18, #54, ...

........................................................................
.............................. CYCLE   13 ..............................
........................................................................
   1   -470.6025552 -0.470603E+03  0.959E-02    0.01       0.0  T
   2   -469.6007395  0.100182E+01  0.128E+00    0.22       1.0  T
   3   -470.1858851 -0.585146E+00  0.759E-01    0.02       1.0  T
   4   -470.4449949 -0.259110E+00  0.489E-01    0.01       1.0  T
   5   -470.5822253 -0.137230E+00  0.201E-01    0.01       1.0  T
   6   -470.3763760  0.205849E+00  0.577E-01    0.00       1.0  T
   7   -470.3780613 -0.168528E-02  0.579E-01    0.06       1.0  T
   8   -470.5495155 -0.171454E+00  0.298E-01    0.02       1.0  T
   9   -470.5932714 -0.437559E-01  0.149E-01    0.01       1.0  T
  10   -470.6072995 -0.140281E-01  0.507E-02    0.00       1.0  T
  11   -470.6078269 -0.527410E-03  0.433E-02    0.00       1.0  T
  12   -470.6087848 -0.957916E-03  0.225E-02    0.00       1.0  T
  13   -470.6091224 -0.337525E-03  0.446E-03    0.00       1.4  T
  14   -470.6091021  0.202871E-04  0.705E-03    0.00       1.0  T
  15   -470.6091356 -0.335674E-04  0.548E-04    0.00      11.5  T
  16   -470.6091306  0.500128E-05  0.275E-03    0.00       2.3  T
  17   -470.6091358 -0.519232E-05  0.126E-04    0.00      49.9  T
  18   -470.6091358 -0.526751E-08  0.890E-05    0.00      70.5  T
  19   -470.6091358  0.313156E-08  0.111E-04    0.00      56.7  T
     SCC iter.                  ...        0 min,  5.302 sec
     gradient                   ...        0 min,  0.651 sec
 * total energy  :  -463.2768716 Eh     change       -0.1358494E-01 Eh
   gradient norm :     0.0588292 Eh/α   predicted    -0.1917011E-01 (  41.11%)
   displ. norm   :     0.7565659 α      lambda       -0.1636329E-01
   maximum displ.:     0.5007863 α      in ANC's #57, #18, #55, ...

........................................................................
.............................. CYCLE   14 ..............................
........................................................................
   1   -470.6393507 -0.470639E+03  0.794E-02    0.01       0.0  T
   2   -469.6581748  0.981176E+00  0.126E+00    0.23       1.0  T
   3   -470.3719928 -0.713818E+00  0.618E-01    0.02       1.0  T
   4   -470.5207558 -0.148763E+00  0.421E-01    0.03       1.0  T
   5   -470.5609249 -0.401691E-01  0.346E-01    0.02       1.0  T
   6   -470.3174318  0.243493E+00  0.685E-01    0.04       1.0  T
   7   -470.2469378  0.704940E-01  0.761E-01    0.08       1.0  T
   8   -470.6351744 -0.388237E+00  0.114E-01    0.01       1.0  T
   9   -470.6411150 -0.594060E-02  0.618E-02    0.00       1.0  T
  10   -470.6429651 -0.185013E-02  0.338E-02    0.00       1.0  T
  11   -470.6414500  0.151514E-02  0.584E-02    0.01       1.0  T
  12   -470.6437013 -0.225134E-02  0.989E-03    0.00       1.0  T
  13   -470.6431978  0.503470E-03  0.287E-02    0.00       1.0  T
  14   -470.6437610 -0.563129E-03  0.253E-03    0.00       2.5  T
  15   -470.6437529  0.812145E-05  0.430E-03    0.00       1.5  T
  16   -470.6437651 -0.122084E-04  0.876E-04    0.00       7.2  T
  17   -470.6437651 -0.191636E-07  0.859E-04    0.00       7.3  T
  18   -470.6437654 -0.362019E-06  0.472E-04    0.00      13.3  T
  19   -470.6437656 -0.148782E-06  0.119E-04    0.00      52.9  T
  20   -470.6437656 -0.812622E-08  0.573E-05    0.00     109.5  T
     SCC iter.                  ...        0 min,  5.573 sec
     gradient                   ...        0 min,  0.645 sec
 * total energy  :  -463.2896562 Eh     change       -0.1278457E-01 Eh
   gradient norm :     0.0407685 Eh/α   predicted    -0.1286476E-01 (   0.63%)
   displ. norm   :     0.8291191 α      lambda       -0.1284062E-01
   maximum displ.:     0.5094441 α      in ANC's #57, #18, #55, ...

........................................................................
.............................. CYCLE   15 ..............................
........................................................................
   1   -470.6678924 -0.470668E+03  0.662E-02    0.01       0.0  T
   2   -469.7209198  0.946973E+00  0.123E+00    0.22       1.0  T
   3   -470.5007457 -0.779826E+00  0.499E-01    0.00       1.0  T
   4   -470.5561330 -0.553873E-01  0.405E-01    0.02       1.0  T
   5   -470.6126464 -0.565134E-01  0.296E-01    0.01       1.0  T
   6   -470.5725026  0.401438E-01  0.374E-01    0.03       1.0  T
   7   -470.4035914  0.168911E+00  0.623E-01    0.05       1.0  T
   8   -470.6455567 -0.241965E+00  0.193E-01    0.01       1.0  T
   9   -470.6622875 -0.167308E-01  0.109E-01    0.00       1.0  T
  10   -470.6673983 -0.511083E-02  0.709E-02    0.00       1.0  T
  11   -470.6697365 -0.233813E-02  0.408E-02    0.00       1.0  T
  12   -470.6705333 -0.796828E-03  0.232E-02    0.00       1.0  T
  13   -470.6706582 -0.124858E-03  0.192E-02    0.00       1.0  T
  14   -470.6708890 -0.230833E-03  0.650E-03    0.00       1.0  T
  15   -470.6708958 -0.678589E-05  0.576E-03    0.00       1.1  T
  16   -470.6709180 -0.222038E-04  0.809E-04    0.00       7.8  T
  17   -470.6709167  0.131684E-05  0.161E-03    0.00       3.9  T
  18   -470.6709183 -0.166732E-05  0.418E-04    0.00      15.0  T
  19   -470.6709184 -0.994581E-07  0.177E-04    0.00      35.5  T
  20   -470.6709184 -0.190367E-07  0.617E-05    0.00     101.7  T
     SCC iter.                  ...        0 min,  5.567 sec
     gradient                   ...        0 min,  0.640 sec
 * total energy  :  -463.2987379 Eh     change       -0.9081666E-02 Eh
   gradient norm :     0.0398758 Eh/α   predicted    -0.1083388E-01 (  19.29%)
   displ. norm   :     0.8179902 α      lambda       -0.1268597E-01
   maximum displ.:     0.5072608 α      in ANC's #57, #18, #55, ...

........................................................................
.............................. CYCLE   16 ..............................
........................................................................
   1   -470.6976147 -0.470698E+03  0.504E-02    0.00       0.0  T
   2   -469.8037184  0.893896E+00  0.119E+00    0.17       1.0  T
   3   -470.5118596 -0.708141E+00  0.531E-01    0.03       1.0  T
   4   -470.6958956 -0.184036E+00  0.734E-02    0.00       1.0  T
   5   -470.6771295  0.187661E-01  0.178E-01    0.00       1.0  T
   6   -470.5933299  0.837996E-01  0.395E-01    0.02       1.0  T
   7   -470.6424940 -0.491641E-01  0.287E-01    0.02       1.0  T
   8   -470.5888981  0.535960E-01  0.401E-01    0.03       1.0  T
   9   -470.6695635 -0.806654E-01  0.208E-01    0.02       1.0  T
  10   -470.6834457 -0.138822E-01  0.152E-01    0.01       1.0  T
  11   -470.6971351 -0.136894E-01  0.536E-02    0.00       1.0  T
  12   -470.6988372 -0.170213E-02  0.217E-02    0.00       1.0  T
  13   -470.6990686 -0.231387E-03  0.122E-02    0.00       1.0  T
  14   -470.6991554 -0.867678E-04  0.528E-03    0.00       1.2  T
  15   -470.6991738 -0.183957E-04  0.134E-03    0.00       4.7  T
  16   -470.6991739 -0.150398E-06  0.128E-03    0.00       4.9  T
  17   -470.6991748 -0.926464E-06  0.571E-04    0.00      11.0  T
  18   -470.6991750 -0.204458E-06  0.155E-04    0.00      40.5  T
  19   -470.6991751 -0.153734E-07  0.505E-05    0.00     124.2  T
     SCC iter.                  ...        0 min,  5.297 sec
     gradient                   ...        0 min,  0.639 sec
 * total energy  :  -463.3071485 Eh     change       -0.8410601E-02 Eh
   gradient norm :     0.0467501 Eh/α   predicted    -0.1058712E-01 (  25.88%)
   displ. norm   :     0.7461847 α      lambda       -0.9166489E-02
   maximum displ.:     0.4512345 α      in ANC's #57, #18, #29, ...

........................................................................
.............................. CYCLE   17 ..............................
........................................................................
   1   -470.7268589 -0.470727E+03  0.266E-02    0.00       0.0  T
   2   -470.2315845  0.495274E+00  0.872E-01    0.05       1.0  T
   3   -470.6813395 -0.449755E+00  0.253E-01    0.00       1.0  T
   4   -470.6706761  0.106635E-01  0.295E-01    0.02       1.0  T
   5   -470.6444823  0.261937E-01  0.336E-01    0.01       1.0  T
   6   -470.6156692  0.288131E-01  0.387E-01    0.02       1.0  T
   7   -470.6173023 -0.163306E-02  0.391E-01    0.03       1.0  T
   8   -470.6417084 -0.244061E-01  0.342E-01    0.02       1.0  T
   9   -470.7199864 -0.782780E-01  0.104E-01    0.00       1.0  T
  10   -470.7249092 -0.492284E-02  0.571E-02    0.00       1.0  T
  11   -470.7265021 -0.159289E-02  0.322E-02    0.00       1.0  T
  12   -470.7270754 -0.573339E-03  0.144E-02    0.00       1.0  T
  13   -470.7270930 -0.175469E-04  0.136E-02    0.00       1.0  T
  14   -470.7272029 -0.109931E-03  0.498E-03    0.00       1.3  T
  15   -470.7272158 -0.128536E-04  0.256E-03    0.00       2.5  T
  16   -470.7272201 -0.438453E-05  0.478E-04    0.00      13.1  T
  17   -470.7272201  0.445518E-07  0.542E-04    0.00      11.6  T
  18   -470.7272202 -0.133490E-06  0.302E-04    0.00      20.8  T
  19   -470.7272203 -0.570826E-07  0.983E-05    0.00      63.8  T
  20   -470.7272203 -0.617695E-08  0.242E-05    0.00     259.8  T
     SCC iter.                  ...        0 min,  5.583 sec
     gradient                   ...        0 min,  0.645 sec
 * total energy  :  -463.3134956 Eh     change       -0.6347085E-02 Eh
   gradient norm :     0.0331593 Eh/α   predicted    -0.7135157E-02 (  12.42%)
   displ. norm   :     0.7737208 α      lambda       -0.8294565E-02
   maximum displ.:     0.4180667 α      in ANC's #57, #18, #29, ...

........................................................................
.............................. CYCLE   18 ..............................
........................................................................
   1   -470.7543158 -0.470754E+03  0.132E-02    0.00       0.0  T
   2   -470.5434893  0.210827E+00  0.555E-01    0.03       1.0  T
   3   -470.7457200 -0.202231E+00  0.115E-01    0.00       1.0  T
   4   -470.7310763  0.146437E-01  0.188E-01    0.01       1.0  T
   5   -470.7531099 -0.220336E-01  0.524E-02    0.00       1.0  T
   6   -470.7484120  0.469789E-02  0.910E-02    0.00       1.0  T
   7   -470.7541949 -0.578287E-02  0.186E-02    0.00       1.0  T
   8   -470.7434776  0.107173E-01  0.123E-01    0.01       1.0  T
   9   -470.7520575 -0.857989E-02  0.568E-02    0.00       1.0  T
  10   -470.7526292 -0.571732E-03  0.494E-02    0.00       1.0  T
  11   -470.7542456 -0.161637E-02  0.148E-02    0.00       1.0  T
  12   -470.7543894 -0.143779E-03  0.475E-03    0.00       1.3  T
  13   -470.7544042 -0.147884E-04  0.147E-03    0.00       4.3  T
  14   -470.7544055 -0.135037E-05  0.386E-04    0.00      16.3  T
  15   -470.7544056 -0.499547E-07  0.266E-04    0.00      23.6  T
  16   -470.7544056 -0.394860E-07  0.114E-04    0.00      55.0  T
  17   -470.7544056 -0.576057E-08  0.668E-05    0.00      93.9  T
     SCC iter.                  ...        0 min,  4.733 sec
     gradient                   ...        0 min,  0.645 sec
 * total energy  :  -463.3174210 Eh     change       -0.3925435E-02 Eh
   gradient norm :     0.0538842 Eh/α   predicted    -0.6630028E-02 (  68.90%)
   displ. norm   :     0.6190558 α      lambda       -0.7309190E-02
   maximum displ.:     0.3262298 α      in ANC's #57, #18, #29, ...

........................................................................
.............................. CYCLE   19 ..............................
........................................................................
   1   -470.7725730 -0.470773E+03  0.172E-02    0.00       0.0  T
   2   -470.5816203  0.190953E+00  0.540E-01    0.02       1.0  T
   3   -470.7676631 -0.186043E+00  0.932E-02    0.00       1.0  T
   4   -470.5951990  0.172464E+00  0.498E-01    0.03       1.0  T
   5   -470.7376914 -0.142492E+00  0.223E-01    0.01       1.0  T
   6   -470.7367781  0.913362E-03  0.228E-01    0.01       1.0  T
   7   -470.7545165 -0.177384E-01  0.156E-01    0.01       1.0  T
   8   -470.7272847  0.272318E-01  0.249E-01    0.02       1.0  T
   9   -470.7689602 -0.416755E-01  0.730E-02    0.00       1.0  T
  10   -470.7692502 -0.290015E-03  0.688E-02    0.01       1.0  T
  11   -470.7726749 -0.342467E-02  0.720E-03    0.00       1.0  T
  12   -470.7726615  0.133709E-04  0.831E-03    0.00       1.0  T
  13   -470.7727068 -0.453355E-04  0.197E-03    0.00       3.2  T
  14   -470.7727084 -0.157892E-05  0.121E-03    0.00       5.2  T
  15   -470.7727094 -0.100068E-05  0.277E-04    0.00      22.7  T
  16   -470.7727094 -0.217136E-07  0.214E-04    0.00      29.3  T
  17   -470.7727095 -0.260335E-07  0.860E-05    0.00      73.0  T
  18   -470.7727095 -0.208934E-08  0.630E-05    0.00      99.7  T
     SCC iter.                  ...        0 min,  5.004 sec
     gradient                   ...        0 min,  0.644 sec
 * total energy  :  -463.3217311 Eh     change       -0.4310150E-02 Eh
   gradient norm :     0.0319259 Eh/α   predicted    -0.5055148E-02 (  17.28%)
   displ. norm   :     0.6262885 α      lambda       -0.5075832E-02
   maximum displ.:     0.3778045 α      in ANC's #18, #57, #29, ...

........................................................................
.............................. CYCLE   20 ..............................
........................................................................
   1   -470.7851855 -0.470785E+03  0.350E-02    0.00       0.0  T
   2   -470.0544737  0.730712E+00  0.102E+00    0.13       1.0  T
   3   -470.5583366 -0.503863E+00  0.565E-01    0.04       1.0  T
   4   -470.5214632  0.368734E-01  0.636E-01    0.01       1.0  T
   5   -470.5297455 -0.828230E-02  0.587E-01    0.00       1.0  T
   6   -470.6291201 -0.993746E-01  0.466E-01    0.00       1.0  T
   7   -470.4892103  0.139910E+00  0.631E-01    0.05       1.0  T
   8   -470.6006496 -0.111439E+00  0.501E-01    0.04       1.0  T
   9   -470.7780725 -0.177423E+00  0.108E-01    0.00       1.0  T
  10   -470.7760777  0.199485E-02  0.122E-01    0.01       1.0  T
  11   -470.7831219 -0.704419E-02  0.664E-02    0.00       1.0  T
  12   -470.7839844 -0.862513E-03  0.546E-02    0.00       1.0  T
  13   -470.7859005 -0.191614E-02  0.139E-02    0.00       1.0  T
  14   -470.7858753  0.252277E-04  0.149E-02    0.00       1.0  T
  15   -470.7860230 -0.147710E-03  0.335E-03    0.00       1.9  T
  16   -470.7860197  0.328899E-05  0.396E-03    0.00       1.6  T
  17   -470.7860303 -0.105517E-04  0.843E-04    0.00       7.4  T
  18   -470.7860307 -0.407636E-06  0.359E-04    0.00      17.5  T
  19   -470.7860306  0.508035E-07  0.450E-04    0.00      13.9  T
  20   -470.7860307 -0.113958E-06  0.196E-04    0.00      32.0  T
  21   -470.7860308 -0.234816E-07  0.744E-05    0.00      84.3  T
     SCC iter.                  ...        0 min,  5.834 sec
     gradient                   ...        0 min,  0.646 sec
 * total energy  :  -463.3236576 Eh     change       -0.1926492E-02 Eh
   gradient norm :     0.0478490 Eh/α   predicted    -0.3533396E-02 (  83.41%)
   displ. norm   :     0.5267320 α      lambda       -0.4330442E-02
   maximum displ.:     0.2980001 α      in ANC's #18, #57, #29, ...
 * RMSD in coord.:     0.6997798 α      energy gain  -0.1385020E+01 Eh

generating ANC from model Hessian ...
Using Lindh-Hessian (1995)
 Shifting diagonal of input Hessian by    1.0022580526607627E-002
 Lowest  eigenvalues of input Hessian
    0.010000    0.010004    0.010005    0.010006    0.010011    0.010015
    0.010016    0.010018    0.010019    0.000000    0.000000    0.000000
    0.000000    0.000000    0.000000    0.010025    0.010031    0.010032
 Highest eigenvalues
    2.746939    2.748705    2.753718    2.956826    2.962239    2.970419


........................................................................
.............................. CYCLE   21 ..............................
........................................................................
   1   -470.7997005 -0.470800E+03  0.108E-02    0.00       0.0  T
   2   -470.7256814  0.740191E-01  0.337E-01    0.00       1.0  T
   3   -470.7982958 -0.726144E-01  0.543E-02    0.00       1.0  T
   4   -470.7292867  0.690091E-01  0.313E-01    0.03       1.0  T
   5   -470.7916834 -0.623967E-01  0.107E-01    0.00       1.0  T
   6   -470.7560247  0.356587E-01  0.259E-01    0.00       1.0  T
   7   -470.7920697 -0.360449E-01  0.101E-01    0.00       1.0  T
   8   -470.7721447  0.199249E-01  0.193E-01    0.02       1.0  T
   9   -470.7965824 -0.244377E-01  0.657E-02    0.00       1.0  T
  10   -470.7990928 -0.251035E-02  0.300E-02    0.00       1.0  T
  11   -470.7996815 -0.588660E-03  0.971E-03    0.00       1.0  T
  12   -470.7997348 -0.533846E-04  0.442E-03    0.00       1.4  T
  13   -470.7997470 -0.122002E-04  0.128E-03    0.00       4.9  T
  14   -470.7997480 -0.976226E-06  0.464E-04    0.00      13.5  T
  15   -470.7997481 -0.876813E-07  0.293E-04    0.00      21.4  T
  16   -470.7997482 -0.516463E-07  0.973E-05    0.00      64.5  T
  17   -470.7997482 -0.291436E-08  0.723E-05    0.00      86.7  T
     SCC iter.                  ...        0 min,  4.730 sec
     gradient                   ...        0 min,  0.648 sec
 * total energy  :  -463.3263422 Eh     change       -0.2684580E-02 Eh
   gradient norm :     0.0164770 Eh/α   predicted     0.0000000E+00 (-100.00%)
   displ. norm   :     0.2798278 α      lambda       -0.1267544E-02
   maximum displ.:     0.1408472 α      in ANC's #20, #34, #61, ...

........................................................................
.............................. CYCLE   22 ..............................
........................................................................
   1   -470.8035345 -0.470804E+03  0.468E-03    0.00       0.0  T
   2   -470.7281582  0.753763E-01  0.334E-01    0.02       1.0  T
   3   -470.8018114 -0.736533E-01  0.494E-02    0.00       1.0  T
   4   -470.7984049  0.340651E-02  0.872E-02    0.00       1.0  T
   5   -470.8011094 -0.270449E-02  0.596E-02    0.01       1.0  T
   6   -470.7979617  0.314769E-02  0.872E-02    0.00       1.0  T
   7   -470.8001568 -0.219510E-02  0.671E-02    0.00       1.0  T
   8   -470.7999752  0.181578E-03  0.695E-02    0.01       1.0  T
   9   -470.8032328 -0.325753E-02  0.210E-02    0.00       1.0  T
  10   -470.8034563 -0.223495E-03  0.116E-02    0.00       1.0  T
  11   -470.8035375 -0.812272E-04  0.439E-03    0.00       1.4  T
  12   -470.8035496 -0.121142E-04  0.122E-03    0.00       5.1  T
  13   -470.8035505 -0.894371E-06  0.429E-04    0.00      14.6  T
  14   -470.8035505 -0.452036E-07  0.336E-04    0.00      18.7  T
  15   -470.8035506 -0.769367E-07  0.436E-05    0.00     143.9  T
  16   -470.8035506 -0.109708E-09  0.424E-05    0.00     148.1  T
     SCC iter.                  ...        0 min,  4.461 sec
     gradient                   ...        0 min,  0.649 sec
 * total energy  :  -463.3273544 Eh     change       -0.1012180E-02 Eh
   gradient norm :     0.0077213 Eh/α   predicted    -0.6836579E-03 ( -32.46%)
   displ. norm   :     0.7382932 α      lambda       -0.2965386E-02
   maximum displ.:     0.3448316 α      in ANC's #20, #34, #23, ...

........................................................................
.............................. CYCLE   23 ..............................
........................................................................
   1   -470.8083610 -0.470808E+03  0.142E-02    0.00       0.0  T
   2   -470.3522515  0.456109E+00  0.825E-01    0.06       1.0  T
   3   -470.7925208 -0.440269E+00  0.149E-01    0.00       1.0  T
   4   -470.7882881  0.423260E-02  0.174E-01    0.00       1.0  T
   5   -470.7980853 -0.979711E-02  0.124E-01    0.01       1.0  T
   6   -470.7399633  0.581220E-01  0.323E-01    0.00       1.0  T
   7   -470.7810881 -0.411248E-01  0.191E-01    0.01       1.0  T
   8   -470.7782410  0.284713E-02  0.202E-01    0.02       1.0  T
   9   -470.8066536 -0.284126E-01  0.509E-02    0.00       1.0  T
  10   -470.8067229 -0.693625E-04  0.507E-02    0.00       1.0  T
  11   -470.8084220 -0.169903E-02  0.115E-02    0.00       1.0  T
  12   -470.8084797 -0.577646E-04  0.674E-03    0.00       1.0  T
  13   -470.8085033 -0.235275E-04  0.348E-03    0.00       1.8  T
  14   -470.8085105 -0.722776E-05  0.127E-03    0.00       4.9  T
  15   -470.8085116 -0.113285E-05  0.163E-04    0.00      38.5  T
  16   -470.8085116 -0.850241E-08  0.117E-04    0.00      53.5  T
  17   -470.8085116 -0.576205E-08  0.705E-05    0.00      89.0  T
     SCC iter.                  ...        0 min,  4.723 sec
     gradient                   ...        0 min,  0.647 sec
 * total energy  :  -463.3282416 Eh     change       -0.8872227E-03 Eh
   gradient norm :     0.0284234 Eh/α   predicted    -0.2290878E-02 ( 158.21%)
   displ. norm   :     0.4448546 α      lambda       -0.3011878E-02
   maximum displ.:     0.2113288 α      in ANC's #20, #34, #23, ...

........................................................................
.............................. CYCLE   24 ..............................
........................................................................
   1   -470.8155044 -0.470816E+03  0.935E-03    0.00       0.0  T
   2   -470.5810512  0.234453E+00  0.594E-01    0.03       1.0  T
   3   -470.8128031 -0.231752E+00  0.650E-02    0.00       1.0  T
   4   -470.7976478  0.151554E-01  0.163E-01    0.00       1.0  T
   5   -470.8113898 -0.137421E-01  0.792E-02    0.00       1.0  T
   6   -470.7751719  0.362179E-01  0.245E-01    0.00       1.0  T
   7   -470.8122201 -0.370482E-01  0.685E-02    0.00       1.0  T
   8   -470.8104527  0.176743E-02  0.844E-02    0.00       1.0  T
   9   -470.8142782 -0.382552E-02  0.413E-02    0.00       1.0  T
  10   -470.8146058 -0.327526E-03  0.360E-02    0.00       1.0  T
  11   -470.8152420 -0.636261E-03  0.209E-02    0.00       1.0  T
  12   -470.8155537 -0.311698E-03  0.272E-03    0.00       2.3  T
  13   -470.8155584 -0.465263E-05  0.893E-04    0.00       7.0  T
  14   -470.8155576  0.817107E-06  0.140E-03    0.00       4.5  T
  15   -470.8155589 -0.136409E-05  0.137E-04    0.00      45.9  T
  16   -470.8155589 -0.132978E-07  0.328E-05    0.00     191.0  T
  17   -470.8155589 -0.597709E-09  0.133E-05    0.00     473.4  T
     SCC iter.                  ...        0 min,  4.727 sec
     gradient                   ...        0 min,  0.653 sec
 * total energy  :  -463.3301174 Eh     change       -0.1875817E-02 Eh
   gradient norm :     0.0223441 Eh/α   predicted    -0.1803958E-02 (  -3.83%)
   displ. norm   :     0.5367331 α      lambda       -0.2140917E-02
   maximum displ.:     0.2643866 α      in ANC's #20, #34, #23, ...

........................................................................
.............................. CYCLE   25 ..............................
........................................................................
   1   -470.8180188 -0.470818E+03  0.115E-02    0.00       0.0  T
   2   -470.5362670  0.281752E+00  0.652E-01    0.03       1.0  T
   3   -470.8115702 -0.275303E+00  0.989E-02    0.00       1.0  T
   4   -470.8026506  0.891956E-02  0.153E-01    0.00       1.0  T
   5   -470.8134626 -0.108120E-01  0.826E-02    0.00       1.0  T
   6   -470.7709735  0.424892E-01  0.263E-01    0.00       1.0  T
   7   -470.8163205 -0.453470E-01  0.503E-02    0.00       1.0  T
   8   -470.8158823  0.438196E-03  0.563E-02    0.00       1.0  T
   9   -470.8174766 -0.159434E-02  0.292E-02    0.00       1.0  T
  10   -470.8174776 -0.100851E-05  0.290E-02    0.00       1.0  T
  11   -470.8179556 -0.477997E-03  0.142E-02    0.00       1.0  T
  12   -470.8180780 -0.122311E-03  0.579E-03    0.00       1.1  T
  13   -470.8181006 -0.226414E-04  0.189E-03    0.00       3.3  T
  14   -470.8181029 -0.231072E-05  0.445E-04    0.00      14.1  T
  15   -470.8181029  0.289231E-08  0.450E-04    0.00      13.9  T
  16   -470.8181030 -0.136592E-06  0.539E-05    0.00     116.3  T
  17   -470.8181030 -0.139437E-08  0.355E-05    0.00     176.7  T
     SCC iter.                  ...        0 min,  4.723 sec
     gradient                   ...        0 min,  0.647 sec
 * total energy  :  -463.3308883 Eh     change       -0.7708279E-03 Eh
   gradient norm :     0.0152849 Eh/α   predicted    -0.1378840E-02 (  78.88%)
   displ. norm   :     0.5140876 α      lambda       -0.2311519E-02
   maximum displ.:     0.2597353 α      in ANC's #20, #34, #23, ...

........................................................................
.............................. CYCLE   26 ..............................
........................................................................
   1   -470.8253146 -0.470825E+03  0.127E-02    0.00       0.0  T
   2   -470.5465467  0.278768E+00  0.653E-01    0.04       1.0  T
   3   -470.8170948 -0.270548E+00  0.112E-01    0.01       1.0  T
   4   -470.7726604  0.444344E-01  0.276E-01    0.00       1.0  T
   5   -470.8234374 -0.507770E-01  0.536E-02    0.00       1.0  T
   6   -470.7392841  0.841533E-01  0.362E-01    0.01       1.0  T
   7   -470.8245446 -0.852604E-01  0.351E-02    0.00       1.0  T
   8   -470.8238566  0.687959E-03  0.475E-02    0.00       1.0  T
   9   -470.8253522 -0.149560E-02  0.827E-03    0.00       1.0  T
  10   -470.8252850  0.672357E-04  0.128E-02    0.00       1.0  T
  11   -470.8252855 -0.544663E-06  0.125E-02    0.00       1.0  T
  12   -470.8253609 -0.753589E-04  0.729E-03    0.00       1.0  T
  13   -470.8253904 -0.294671E-04  0.375E-03    0.00       1.7  T
  14   -470.8254001 -0.975295E-05  0.941E-04    0.00       6.7  T
  15   -470.8254007 -0.578963E-06  0.256E-04    0.00      24.5  T
  16   -470.8254007 -0.434251E-07  0.394E-05    0.00     159.3  T
  17   -470.8254007 -0.554792E-10  0.382E-05    0.00     164.5  T
     SCC iter.                  ...        0 min,  4.731 sec
     gradient                   ...        0 min,  0.648 sec
 * total energy  :  -463.3323649 Eh     change       -0.1476616E-02 Eh
   gradient norm :     0.0115626 Eh/α   predicted    -0.1461213E-02 (  -1.04%)
   displ. norm   :     0.6018470 α      lambda       -0.1963453E-02
   maximum displ.:     0.3118543 α      in ANC's #20, #34, #23, ...

........................................................................
.............................. CYCLE   27 ..............................
........................................................................
   1   -470.8331665 -0.470833E+03  0.148E-02    0.00       0.0  T
   2   -470.4671027  0.366064E+00  0.751E-01    0.07       1.0  T
   3   -470.8237048 -0.356602E+00  0.121E-01    0.01       1.0  T
   4   -470.8197100  0.399476E-02  0.139E-01    0.01       1.0  T
   5   -470.8273358 -0.762575E-02  0.931E-02    0.01       1.0  T
   6   -470.8063050  0.210308E-01  0.203E-01    0.01       1.0  T
   7   -470.8308728 -0.245678E-01  0.580E-02    0.00       1.0  T
   8   -470.8289335  0.193932E-02  0.784E-02    0.00       1.0  T
   9   -470.8328011 -0.386765E-02  0.255E-02    0.00       1.0  T
  10   -470.8329309 -0.129779E-03  0.217E-02    0.00       1.0  T
  11   -470.8331118 -0.180891E-03  0.152E-02    0.00       1.0  T
  12   -470.8332616 -0.149780E-03  0.489E-03    0.00       1.3  T
  13   -470.8332771 -0.155384E-04  0.148E-03    0.00       4.2  T
  14   -470.8332785 -0.137316E-05  0.449E-04    0.00      14.0  T
  15   -470.8332786 -0.134663E-06  0.137E-04    0.00      45.9  T
  16   -470.8332786 -0.683008E-08  0.895E-05    0.00      70.1  T
     SCC iter.                  ...        0 min,  4.460 sec
     gradient                   ...        0 min,  0.651 sec
 * total energy  :  -463.3333973 Eh     change       -0.1032458E-02 Eh
   gradient norm :     0.0090188 Eh/α   predicted    -0.1337331E-02 (  29.53%)
   displ. norm   :     0.5988543 α      lambda       -0.1705182E-02
   maximum displ.:     0.3227842 α      in ANC's #20, #34, #23, ...

........................................................................
.............................. CYCLE   28 ..............................
........................................................................
   1   -470.8431639 -0.470843E+03  0.144E-02    0.00       0.0  T
   2   -470.5800137  0.263150E+00  0.639E-01    0.05       1.0  T
   3   -470.8227245 -0.242711E+00  0.175E-01    0.02       1.0  T
   4   -470.8292569 -0.653246E-02  0.141E-01    0.01       1.0  T
   5   -470.8377090 -0.845207E-02  0.885E-02    0.01       1.0  T
   6   -470.8386476 -0.938579E-03  0.807E-02    0.00       1.0  T
   7   -470.8405750 -0.192736E-02  0.610E-02    0.00       1.0  T
   8   -470.8401625  0.412442E-03  0.651E-02    0.00       1.0  T
   9   -470.8425617 -0.239923E-02  0.305E-02    0.00       1.0  T
  10   -470.8431148 -0.553037E-03  0.141E-02    0.00       1.0  T
  11   -470.8431807 -0.659437E-04  0.106E-02    0.00       1.0  T
  12   -470.8432496 -0.688526E-04  0.386E-03    0.00       1.6  T
  13   -470.8432588 -0.919686E-05  0.125E-03    0.00       5.0  T
  14   -470.8432598 -0.105619E-05  0.242E-04    0.00      25.9  T
  15   -470.8432599 -0.215143E-07  0.160E-04    0.00      39.3  T
  16   -470.8432599 -0.163201E-07  0.400E-05    0.00     156.7  T
     SCC iter.                  ...        0 min,  4.453 sec
     gradient                   ...        0 min,  0.649 sec
 * total energy  :  -463.3345639 Eh     change       -0.1166606E-02 Eh
   gradient norm :     0.0094602 Eh/α   predicted    -0.1158358E-02 (  -0.71%)
   displ. norm   :     0.6564259 α      lambda       -0.1555998E-02
   maximum displ.:     0.3606434 α      in ANC's #20, #34, #23, ...

........................................................................
.............................. CYCLE   29 ..............................
........................................................................
   1   -470.8537037 -0.470854E+03  0.156E-02    0.00       0.0  T
   2   -470.7214211  0.132283E+00  0.453E-01    0.01       1.0  T
   3   -470.7970114 -0.755902E-01  0.291E-01    0.01       1.0  T
   4   -470.8504588 -0.534475E-01  0.675E-02    0.00       1.0  T
   5   -470.8463141  0.414468E-02  0.105E-01    0.00       1.0  T
   6   -470.8413246  0.498958E-02  0.131E-01    0.00       1.0  T
   7   -470.8415369 -0.212363E-03  0.129E-01    0.01       1.0  T
   8   -470.8501678 -0.863086E-02  0.703E-02    0.00       1.0  T
   9   -470.8533005 -0.313270E-02  0.268E-02    0.00       1.0  T
  10   -470.8536904 -0.389883E-03  0.127E-02    0.00       1.0  T
  11   -470.8537868 -0.964488E-04  0.521E-03    0.00       1.2  T
  12   -470.8538046 -0.177853E-04  0.123E-03    0.00       5.1  T
  13   -470.8538052 -0.618300E-06  0.758E-04    0.00       8.3  T
  14   -470.8538055 -0.241188E-06  0.477E-04    0.00      13.2  T
  15   -470.8538056 -0.157076E-06  0.618E-05    0.00     101.5  T
  16   -470.8538056 -0.247906E-08  0.107E-05    0.00     588.1  T
     SCC iter.                  ...        0 min,  4.461 sec
     gradient                   ...        0 min,  0.652 sec
 * total energy  :  -463.3356480 Eh     change       -0.1084034E-02 Eh
   gradient norm :     0.0071735 Eh/α   predicted    -0.1113240E-02 (   2.69%)
   displ. norm   :     0.6885470 α      lambda       -0.1355115E-02
   maximum displ.:     0.3862784 α      in ANC's #20, #34, #23, ...

........................................................................
.............................. CYCLE   30 ..............................
........................................................................
   1   -470.8645470 -0.470865E+03  0.149E-02    0.00       0.0  T
   2   -470.7257393  0.138808E+00  0.447E-01    0.04       1.0  T
   3   -470.8438704 -0.118131E+00  0.187E-01    0.01       1.0  T
   4   -470.8477766 -0.390622E-02  0.155E-01    0.01       1.0  T
   5   -470.8549487 -0.717204E-02  0.120E-01    0.00       1.0  T
   6   -470.8331108  0.218379E-01  0.213E-01    0.00       1.0  T
   7   -470.8396632 -0.655247E-02  0.183E-01    0.01       1.0  T
   8   -470.8535282 -0.138650E-01  0.122E-01    0.01       1.0  T
   9   -470.8631254 -0.959713E-02  0.467E-02    0.00       1.0  T
  10   -470.8645123 -0.138691E-02  0.141E-02    0.00       1.0  T
  11   -470.8645755 -0.631735E-04  0.105E-02    0.00       1.0  T
  12   -470.8646461 -0.706722E-04  0.279E-03    0.00       2.3  T
  13   -470.8646491 -0.294284E-05  0.175E-03    0.00       3.6  T
  14   -470.8646504 -0.134708E-05  0.985E-04    0.00       6.4  T
  15   -470.8646510 -0.609580E-06  0.328E-04    0.00      19.1  T
  16   -470.8646511 -0.650497E-07  0.112E-04    0.00      55.8  T
  17   -470.8646511 -0.444948E-08  0.770E-05    0.00      81.5  T
     SCC iter.                  ...        0 min,  4.735 sec
     gradient                   ...        0 min,  0.652 sec
 * total energy  :  -463.3366364 Eh     change       -0.9883910E-03 Eh
   gradient norm :     0.0110915 Eh/α   predicted    -0.9987915E-03 (   1.05%)
   displ. norm   :     0.6900070 α      lambda       -0.1208120E-02
   maximum displ.:     0.3951936 α      in ANC's #20, #23, #34, ...

........................................................................
.............................. CYCLE   31 ..............................
........................................................................
   1   -470.8753921 -0.470875E+03  0.131E-02    0.00       0.0  T
   2   -470.6657482  0.209644E+00  0.547E-01    0.03       1.0  T
   3   -470.8669585 -0.201210E+00  0.120E-01    0.00       1.0  T
   4   -470.7952880  0.716705E-01  0.347E-01    0.01       1.0  T
   5   -470.8656870 -0.703990E-01  0.120E-01    0.00       1.0  T
   6   -470.8356263  0.300607E-01  0.241E-01    0.00       1.0  T
   7   -470.8511883 -0.155620E-01  0.181E-01    0.01       1.0  T
   8   -470.8606926 -0.950424E-02  0.141E-01    0.01       1.0  T
   9   -470.8723183 -0.116257E-01  0.668E-02    0.00       1.0  T
  10   -470.8748905 -0.257220E-02  0.294E-02    0.00       1.0  T
  11   -470.8753483 -0.457768E-03  0.147E-02    0.00       1.0  T
  12   -470.8754878 -0.139521E-03  0.356E-03    0.00       1.8  T
  13   -470.8754946 -0.679360E-05  0.139E-03    0.00       4.5  T
  14   -470.8754946  0.277419E-07  0.140E-03    0.00       4.5  T
  15   -470.8754958 -0.124412E-05  0.405E-04    0.00      15.5  T
  16   -470.8754959 -0.101198E-06  0.110E-04    0.00      57.2  T
  17   -470.8754959 -0.319829E-08  0.846E-05    0.00      74.1  T
     SCC iter.                  ...        0 min,  4.741 sec
     gradient                   ...        0 min,  0.650 sec
 * total energy  :  -463.3375817 Eh     change       -0.9453640E-03 Eh
   gradient norm :     0.0074706 Eh/α   predicted    -0.8916594E-03 (  -5.68%)
   displ. norm   :     0.7031571 α      lambda       -0.1102217E-02
   maximum displ.:     0.4122035 α      in ANC's #20, #23, #29, ...

........................................................................
.............................. CYCLE   32 ..............................
........................................................................
   1   -470.8856685 -0.470886E+03  0.123E-02    0.00       0.0  T
   2   -470.6104667  0.275202E+00  0.626E-01    0.01       1.0  T
   3   -470.8674461 -0.256979E+00  0.168E-01    0.00       1.0  T
   4   -470.8650289  0.241724E-02  0.173E-01    0.01       1.0  T
   5   -470.8779248 -0.128959E-01  0.109E-01    0.01       1.0  T
   6   -470.8660607  0.118641E-01  0.171E-01    0.00       1.0  T
   7   -470.8732172 -0.715643E-02  0.132E-01    0.01       1.0  T
   8   -470.8741219 -0.904739E-03  0.126E-01    0.01       1.0  T
   9   -470.8825470 -0.842515E-02  0.662E-02    0.01       1.0  T
  10   -470.8851288 -0.258174E-02  0.304E-02    0.00       1.0  T
  11   -470.8856567 -0.527960E-03  0.138E-02    0.00       1.0  T
  12   -470.8857776 -0.120806E-03  0.396E-03    0.00       1.6  T
  13   -470.8857869 -0.933092E-05  0.135E-03    0.00       4.6  T
  14   -470.8857867  0.203194E-06  0.144E-03    0.00       4.4  T
  15   -470.8857881 -0.137277E-05  0.266E-04    0.00      23.6  T
  16   -470.8857881 -0.394327E-07  0.110E-04    0.00      56.9  T
  17   -470.8857881 -0.534516E-08  0.666E-05    0.00      94.2  T
     SCC iter.                  ...        0 min,  4.740 sec
     gradient                   ...        0 min,  0.650 sec
 * total energy  :  -463.3383779 Eh     change       -0.7961864E-03 Eh
   gradient norm :     0.0078761 Eh/α   predicted    -0.8235944E-03 (   3.44%)
   displ. norm   :     0.6653696 α      lambda       -0.7716868E-03
   maximum displ.:     0.3992136 α      in ANC's #20, #23, #29, ...

........................................................................
.............................. CYCLE   33 ..............................
........................................................................
   1   -470.8936217 -0.470894E+03  0.102E-02    0.00       0.0  T
   2   -470.6295417  0.264080E+00  0.610E-01    0.02       1.0  T
   3   -470.8824399 -0.252898E+00  0.130E-01    0.00       1.0  T
   4   -470.8881932 -0.575323E-02  0.901E-02    0.01       1.0  T
[...]
    12   6 C       13   8 O                                       1.3581832
    12   6 C       14   6 C                                       1.3936387
     9   6 C       15   6 C                                       1.3962904
    14   6 C       15   6 C                                       1.3838380
     8   6 C       16   6 C                                       1.3860467
    16   6 C       17   6 C                                       1.4322677
    17   6 C       18   6 C                                       1.3542595
    16   6 C       19   7 N                                       1.3774372
    18   6 C       20   6 C                                       1.4284542
    19   7 N       20   6 C                                       1.3666210
    20   6 C       21   6 C                                       1.3967981
    21   6 C       22   6 C                                       1.3963286
    22   6 C       23   6 C                                       1.4283528
    23   6 C       24   6 C                                       1.3548765
    24   6 C       25   6 C                                       1.4315794
    22   6 C       26   7 N                                       1.3674642
    25   6 C       26   7 N                                       1.3757081
    25   6 C       27   6 C                                       1.3874319
    28   6 C       29   6 C                                       1.3972512
    29   6 C       30   6 C                                       1.3833769
    30   6 C       31   6 C                                       1.3938164
    31   6 C       32   8 O                                       1.3578053
    31   6 C       33   6 C                                       1.3929839
    28   6 C       34   6 C                                       1.3953552
    33   6 C       34   6 C                                       1.3861789
    27   6 C       35   6 C                                       1.3880646
    35   6 C       36   6 C                                       1.4337965 (max)
    36   6 C       37   6 C                                       1.3538108
     2   6 C       38   6 C                                       1.3782954
    37   6 C       38   6 C                                       1.4308688
    35   6 C       39   7 N                                       1.3725803
    38   6 C       39   7 N                                       1.3720139
     2   6 C       40   1 H                                       1.0836715
     4   6 C       41   1 H                                       1.0784624
     5   6 C       42   1 H                                       1.0779135
    10   6 C       43   1 H                                       1.0843095
    11   6 C       44   1 H                                       1.0847577
    13   8 O       45   1 H                                       0.9666056 (min)
    14   6 C       46   1 H                                       1.0829857
    15   6 C       47   1 H                                       1.0842269
    17   6 C       48   1 H                                       1.0777660
    18   6 C       49   1 H                                       1.0781132
    23   6 C       50   1 H                                       1.0781133
    24   6 C       51   1 H                                       1.0778369
    29   6 C       52   1 H                                       1.0842626
    30   6 C       53   1 H                                       1.0829858
    32   8 O       54   1 H                                       0.9666315
    33   6 C       55   1 H                                       1.0847682
    34   6 C       56   1 H                                       1.0843455
    36   6 C       57   1 H                                       1.0779674
    37   6 C       58   1 H                                       1.0784732
    60   6 C       61   6 C                                       1.3782792
    61   6 C       62   6 C                                       1.4312371
    62   6 C       63   6 C                                       1.3537172
    63   6 C       64   6 C                                       1.4336733
    61   6 C       65   7 N                                       1.3727551
    64   6 C       65   7 N                                       1.3712230
    64   6 C       66   6 C                                       1.3893897
    67   6 C       68   6 C                                       1.3945526
    68   6 C       69   6 C                                       1.3864982
    69   6 C       70   6 C                                       1.3928702
    70   6 C       71   8 O                                       1.3579184
    70   6 C       72   6 C                                       1.3936984
    67   6 C       73   6 C                                       1.3963349
    72   6 C       73   6 C                                       1.3837743
    66   6 C       74   6 C                                       1.3860675
    74   6 C       75   6 C                                       1.4323787
    75   6 C       76   6 C                                       1.3545573
    74   6 C       77   7 N                                       1.3776374
    76   6 C       78   6 C                                       1.4285015
    77   7 N       78   6 C                                       1.3655507
    78   6 C       79   6 C                                       1.3983363
    79   6 C       80   6 C                                       1.3978254
    80   6 C       81   6 C                                       1.4283634
    81   6 C       82   6 C                                       1.3551897
    82   6 C       83   6 C                                       1.4317321
    80   6 C       84   7 N                                       1.3663941
    83   6 C       84   7 N                                       1.3760238
    83   6 C       85   6 C                                       1.3874688
    86   6 C       87   6 C                                       1.3975189
    87   6 C       88   6 C                                       1.3832083
    88   6 C       89   6 C                                       1.3939039
    89   6 C       90   8 O                                       1.3574562
    89   6 C       91   6 C                                       1.3930829
    86   6 C       92   6 C                                       1.3955247
    91   6 C       92   6 C                                       1.3860806
    85   6 C       93   6 C                                       1.3892937
    93   6 C       94   6 C                                       1.4337103
    94   6 C       95   6 C                                       1.3542085
    60   6 C       96   6 C                                       1.3787277
    95   6 C       96   6 C                                       1.4308140
    93   6 C       97   7 N                                       1.3718316
    96   6 C       97   7 N                                       1.3719636
    60   6 C       98   1 H                                       1.0836870
    62   6 C       99   1 H                                       1.0784497
    63   6 C      100   1 H                                       1.0779189
    68   6 C      101   1 H                                       1.0843013
    69   6 C      102   1 H                                       1.0847397
    71   8 O      103   1 H                                       0.9666213
    72   6 C      104   1 H                                       1.0829768
    73   6 C      105   1 H                                       1.0842175
    75   6 C      106   1 H                                       1.0777653
    76   6 C      107   1 H                                       1.0781146
    81   6 C      108   1 H                                       1.0781111
    82   6 C      109   1 H                                       1.0778428
    87   6 C      110   1 H                                       1.0842605
    88   6 C      111   1 H                                       1.0829773
    90   8 O      112   1 H                                       0.9666432
    91   6 C      113   1 H                                       1.0847494
    92   6 C      114   1 H                                       1.0843365
    94   6 C      115   1 H                                       1.0779687
    95   6 C      116   1 H                                       1.0784579
   117   6 C      118   6 C                                       1.2246193
   119   6 C      120   6 C                                       1.2309880
   121   6 C      122   6 C                                       1.2311334
   123   6 C      124   6 C                                       1.2250370
   125   6 C      126   6 C                                       1.2258666
   127   6 C      128   6 C                                       1.2321959
   129   6 C      130   6 C                                       1.2322221
   131   6 C      132   6 C                                       1.2259688
   133   6 C      134   6 C                                       1.2260699
   135   6 C      136   6 C                                       1.2322816
   137   6 C      138   6 C                                       1.2321333
   139   6 C      140   6 C                                       1.2256788
   142   6 C      143   6 C                                       1.3980551
   143   6 C      144   6 C                                       1.4278159
   144   6 C      145   6 C                                       1.3560386
   145   6 C      146   6 C                                       1.4311895
   143   6 C      147   7 N                                       1.3667091
   146   6 C      147   7 N                                       1.3748834
   146   6 C      148   6 C                                       1.3894010
   149   6 C      150   6 C                                       1.3976710
   150   6 C      151   6 C                                       1.3830882
   151   6 C      152   6 C                                       1.3940108
   152   6 C      153   8 O                                       1.3570285
   152   6 C      154   6 C                                       1.3932171
   149   6 C      155   6 C                                       1.3957216
   154   6 C      155   6 C                                       1.3858901
   148   6 C      156   6 C                                       1.3881640
   156   6 C      157   6 C                                       1.4315686
   157   6 C      158   6 C                                       1.3557712
   156   6 C      159   7 N                                       1.3760287
   158   6 C      160   6 C                                       1.4279686
   159   7 N      160   6 C                                       1.3656091
   160   6 C      161   6 C                                       1.3989034
   161   6 C      162   6 C                                       1.3987516
   162   6 C      163   6 C                                       1.4279640
   163   6 C      164   6 C                                       1.3558738
   164   6 C      165   6 C                                       1.4314379
   162   6 C      166   7 N                                       1.3657779
   165   6 C      166   7 N                                       1.3755569
   165   6 C      167   6 C                                       1.3883380
   168   6 C      169   6 C                                       1.3956243
   169   6 C      170   6 C                                       1.3859445
   170   6 C      171   6 C                                       1.3932118
   171   6 C      172   8 O                                       1.3571019
   171   6 C      173   6 C                                       1.3939972
   168   6 C      174   6 C                                       1.3976281
   173   6 C      174   6 C                                       1.3830882
   167   6 C      175   6 C                                       1.3890107
   175   6 C      176   6 C                                       1.4312881
   176   6 C      177   6 C                                       1.3559363
   142   6 C      178   6 C                                       1.3982079
   177   6 C      178   6 C                                       1.4278344
   175   6 C      179   7 N                                       1.3753211
   178   6 C      179   7 N                                       1.3664885
   144   6 C      180   1 H                                       1.0781241
   145   6 C      181   1 H                                       1.0778492
   150   6 C      182   1 H                                       1.0842482
   151   6 C      183   1 H                                       1.0829746
   153   8 O      184   1 H                                       0.9666896
   154   6 C      185   1 H                                       1.0847075
   155   6 C      186   1 H                                       1.0843155
   157   6 C      187   1 H                                       1.0778046
   158   6 C      188   1 H                                       1.0781124
   163   6 C      189   1 H                                       1.0781263
   164   6 C      190   1 H                                       1.0778354
   169   6 C      191   1 H                                       1.0843157
   170   6 C      192   1 H                                       1.0847171
   172   8 O      193   1 H                                       0.9666831
   173   6 C      194   1 H                                       1.0829783
   174   6 C      195   1 H                                       1.0842567
   176   6 C      196   1 H                                       1.0778338
   177   6 C      197   1 H                                       1.0781203
   199   6 C      200   6 C                                       1.3992446
   200   6 C      201   6 C                                       1.4277193
   201   6 C      202   6 C                                       1.3563734
   202   6 C      203   6 C                                       1.4311339
   200   6 C      204   7 N                                       1.3658498
   203   6 C      204   7 N                                       1.3747668
   203   6 C      205   6 C                                       1.3895998
   206   6 C      207   6 C                                       1.3977282
   207   6 C      208   6 C                                       1.3830479
   208   6 C      209   6 C                                       1.3940750
   209   6 C      210   8 O                                       1.3567187
   209   6 C      211   6 C                                       1.3933167
   206   6 C      212   6 C                                       1.3959508
   211   6 C      212   6 C                                       1.3857211
   205   6 C      213   6 C                                       1.3888776
   213   6 C      214   6 C                                       1.4314318
   214   6 C      215   6 C                                       1.3561005
   213   6 C      216   7 N                                       1.3759424
   215   6 C      217   6 C                                       1.4278004
   216   7 N      217   6 C                                       1.3654760
   217   6 C      218   6 C                                       1.3996628
   218   6 C      219   6 C                                       1.3993981
   219   6 C      220   6 C                                       1.4277329
   220   6 C      221   6 C                                       1.3563880
   221   6 C      222   6 C                                       1.4310728
   219   6 C      223   7 N                                       1.3659368
   222   6 C      223   7 N                                       1.3746683
   222   6 C      224   6 C                                       1.3896061
   225   6 C      226   6 C                                       1.3958609
   226   6 C      227   6 C                                       1.3857717
   227   6 C      228   6 C                                       1.3932892
   228   6 C      229   8 O                                       1.3567577
   228   6 C      230   6 C                                       1.3940869
   225   6 C      231   6 C                                       1.3977564
   230   6 C      231   6 C                                       1.3830135
   224   6 C      232   6 C                                       1.3887858
   232   6 C      233   6 C                                       1.4315101
   233   6 C      234   6 C                                       1.3560988
   199   6 C      235   6 C                                       1.3994983
   234   6 C      235   6 C                                       1.4278021
   232   6 C      236   7 N                                       1.3759582
   235   6 C      236   7 N                                       1.3654017
   201   6 C      237   1 H                                       1.0781293
   202   6 C      238   1 H                                       1.0778552
   207   6 C      239   1 H                                       1.0842281
   208   6 C      240   1 H                                       1.0829662
   210   8 O      241   1 H                                       0.9667080
   211   6 C      242   1 H                                       1.0846943
   212   6 C      243   1 H                                       1.0843191
   214   6 C      244   1 H                                       1.0777954
   215   6 C      245   1 H                                       1.0781028
   220   6 C      246   1 H                                       1.0781140
   221   6 C      247   1 H                                       1.0778470
   226   6 C      248   1 H                                       1.0843091
   227   6 C      249   1 H                                       1.0846947
   229   8 O      250   1 H                                       0.9667046
   230   6 C      251   1 H                                       1.0829649
   231   6 C      252   1 H                                       1.0842405
   233   6 C      253   1 H                                       1.0778109
   234   6 C      254   1 H                                       1.0781206

 * 5 distinct bonds (by element types)

   Z      Z             #   av. dist./Å        max./Å        min./Å
   1 H    6 C          66     1.0811265     1.0847682     1.0777653
   6 C    6 C         140     1.3821520     1.4337965     1.2246193
   6 C    7 N          32     1.3712526     1.3776374     1.3654017
   1 H    8 O           8     0.9666609     0.9667080     0.9666056
   6 C    8 O           8     1.3573713     1.3581832     1.3567187


optimized geometry written to: xtbopt.xyz


           -------------------------------------------------
          | TOTAL ENERGY             -463.345283268543 Eh   |
          | GRADIENT NORM               0.000421872892 Eh/α |
          | HOMO-LUMO GAP               0.002461712670 eV   |
           -------------------------------------------------

------------------------------------------------------------------------
 * finished run on 2022/07/30 at 03:06:37.172     
------------------------------------------------------------------------
 total:
 * wall-time:     0 d,  0 h,  8 min, 34.418 sec
 *  cpu-time:     0 d,  0 h,  8 min, 31.840 sec
 * ratio c/w:     0.995 speedup
 SCF:
 * wall-time:     0 d,  0 h,  0 min, 22.903 sec
 *  cpu-time:     0 d,  0 h,  0 min, 22.787 sec
 * ratio c/w:     0.995 speedup
 ANC optimizer:
 * wall-time:     0 d,  0 h,  8 min, 11.227 sec
 *  cpu-time:     0 d,  0 h,  8 min,  8.768 sec
 * ratio c/w:     0.995 speedup

