254
 energy: -461.938637243855 gnorm: 1.869477840780 xtb: 6.5.1 (b24c23e)
Co          38.24951799999999        0.02658900000000       -0.02830500000000
C           34.91923300000000       -0.12414200000000       -0.17810200000000
C           35.58535500000000       -1.28120400000000       -0.14492400000000
C           34.93626500000000       -2.58649100000000       -0.13358700000000
C           35.87600000000000       -3.50681100000000       -0.03036100000000
C           37.18057499999999       -2.83166700000000        0.02235400000000
N           37.00278800000000       -1.41664600000000       -0.05337400000000
C           38.36926300000000       -3.45206900000000        0.17007200000000
C           38.40423700000000       -4.92714300000000        0.28307200000000
C           38.21161900000000       -5.72828500000000       -0.85296000000000
C           38.23737500000000       -7.12160700000000       -0.74225200000000
C           38.46013299999999       -7.72457300000000        0.50362800000000
O           38.48592899999999       -9.11163900000000        0.62626700000000
C           38.65743400000000       -6.92703300000000        1.63629600000000
C           38.62824100000000       -5.53342000000000        1.52859100000000
C           39.66468800000000       -2.72343800000000        0.23320800000000
C           40.95867799999999       -3.37892600000000        0.46023900000000
C           41.89379899999999       -2.45266100000000        0.41701300000000
N           39.80418299999999       -1.44503300000000        0.05065200000000
C           41.20666600000000       -1.19403600000000        0.15462300000000
C           41.80343000000000       -0.00310300000000       -0.02443600000000
C           41.04824299999999        1.24222400000000       -0.30146300000000
C           41.60476299999999        2.36925400000000       -0.72603200000000
C           40.56040700000000        3.37143000000000       -0.78905600000000
C           39.43227200000000        2.79310400000000       -0.39696800000000
N           39.64883500000000        1.41809000000000       -0.07150700000000
C           38.13462299999999        3.50447700000000       -0.26351700000000
C           38.14388000000000        4.98593400000000       -0.21335600000000
C           38.75888100000000        5.64798800000000        0.86117500000000
C           38.77666200000000        7.04464300000000        0.91073500000000
C           38.18951500000000        7.79129600000000       -0.11484800000000
O           38.20915500000000        9.18202800000000       -0.04848000000000
C           37.58847300000000        7.13433600000000       -1.19859200000000
C           37.56700000000000        5.73792500000000       -1.24859900000000
C           36.96601400000000        2.84140300000000       -0.17745400000000
C           35.64348300000000        3.44314500000000       -0.01590200000000
C           34.78392600000000        2.44332700000000       -0.00442800000000
C           35.54774700000000        1.20545500000000       -0.14483400000000
N           36.82109700000000        1.42447400000000       -0.24713300000000
H           33.83607400000000       -0.15659200000000       -0.20448000000000
H           33.87287100000000       -2.78274200000000       -0.18273000000000
H           35.68807200000000       -4.57164300000000        0.01730900000000
H           38.03852199999999       -5.27277800000000       -1.82048900000000
H           38.08383500000000       -7.73112400000000       -1.62378500000000
H           38.34007200000000       -9.71647900000000       -0.17420100000000
H           38.83146200000000       -7.38796800000000        2.60069000000000
H           38.78026000000000       -4.92682800000000        2.41311300000000
H           41.13917800000000       -4.43282200000000        0.62715300000000
H           42.95448000000000       -2.62701200000000        0.54259100000000
H           42.64777900000000        2.53008800000000       -0.96215100000000
H           40.68740199999999        4.40419400000000       -1.08509800000000
H           39.21503000000000        5.08179700000000        1.66318000000000
H           39.24241099999999        7.54726300000000        1.74988300000000
H           37.78580200000000        9.75143900000000       -0.77285700000000
H           37.13956499999999        7.70466300000000       -2.00152900000000
H           37.10403399999999        5.24174700000000       -2.09394400000000
H           35.39098899999999        4.49067400000000        0.08114200000000
H           33.71095000000000        2.53694900000000        0.10146700000000
Co          95.51327999999999       -0.03304300000000       -0.02400500000000
C           98.84356500000000        0.09463600000000       -0.19387800000000
C           98.17744300000000        1.24448800000000       -0.32705300000000
C           98.82653299999998        2.53789700000000       -0.50310800000000
C           97.88679800000000        3.46350500000000       -0.53299300000000
C           96.58222300000000        2.80291000000000       -0.38395700000000
N           96.76000999999998        1.39166300000000       -0.25588200000000
C           95.39353500000000        3.43808700000000       -0.32677900000000
C           95.35855999999998        4.91411200000000       -0.42658400000000
C           95.55117899999999        5.54397400000000       -1.66580600000000
C           95.52542300000000        6.93876500000000       -1.75615000000000
C           95.30266500000000        7.71424400000000       -0.60967000000000
O           95.27686900000000        9.10455500000000       -0.68730800000000
C           95.10536399999999        7.08746500000000        0.62570600000000
C           95.13455700000000        5.69281700000000        0.71906300000000
C           94.09811000000001        2.72605300000000       -0.15975600000000
C           92.80412000000000        3.40733200000000       -0.02912100000000
C           91.86899900000000        2.48444900000000        0.06099700000000
N           93.95861499999999        1.43468200000000       -0.15700500000000
C           92.55613200000001        1.20119900000000       -0.01809800000000
C           91.95936800000000       -0.00310300000000       -0.02443600000000
C           92.71455500000000       -1.27529200000000       -0.11992400000000
C           92.15803500000000       -2.45157700000000       -0.37840100000000
C           93.20239100000001       -3.45242600000000       -0.29698500000000
C           94.33052599999999       -2.82383000000000        0.00807100000000
N           94.11396300000000       -1.41634500000000        0.13288500000000
C           95.62817500000000       -3.50869600000000        0.24220500000000
C           95.61891799999999       -4.96762800000000        0.50439900000000
C           95.00391699999999       -5.46866500000000        1.66280000000000
C           94.98613500000000       -6.84376000000000        1.91223200000000
C           95.57328300000000       -7.72983400000000        1.00438600000000
O           95.55364299999999       -9.09665500000000        1.26960100000000
C           96.17432499999998       -7.23516000000000       -0.16240400000000
C           96.19579800000000       -5.86037100000000       -0.41224200000000
C           96.79678299999999       -2.84013400000000        0.23224300000000
C           98.11931400000000       -3.41247200000000        0.47845900000000
C           98.97887199999998       -2.42135200000000        0.34636600000000
C           98.21504999999999       -1.21643200000000        0.02980900000000
N           96.94170099999999       -1.44786100000000       -0.04000800000000
H           99.92672399999998        0.12296600000000       -0.22463900000000
H           99.88992700000000        2.72506600000000       -0.57990000000000
H           98.07472599999998        4.52416000000000       -0.63859200000000
H           95.72427600000000        4.95436300000000       -2.55797200000000
H           95.67896300000000        7.41549800000000       -2.71601300000000
H           95.42272500000000        9.58829100000000       -1.56627400000000
H           94.93133600000000        7.68199700000000        1.51399000000000
H           94.98253699999999        5.21940700000000        1.68146500000000
H           92.62361900000001        4.47427200000000       -0.01514100000000
H           90.80831800000000        2.67501300000000        0.16026100000000
H           91.11501900000000       -2.64462400000000       -0.58900100000000
H           93.07539600000000       -4.51698000000000       -0.44178900000000
H           94.54776800000000       -4.79326500000000        2.37527400000000
H           94.52038700000000       -7.22078400000000        2.81481100000000
H           95.97699499999999       -9.76410400000000        0.63441500000000
H           96.62323300000000       -7.91478700000000       -0.87520500000000
H           96.65876400000001       -5.49061200000000       -1.32003100000000
H           98.37180900000000       -4.43524000000000        0.72479200000000
H          100.05184799999999       -2.49881200000000        0.46459800000000
C           44.24900600000000        0.01112300000000       -0.01448500000000
C           45.70723199999999       -0.01071400000000       -0.03235800000000
C           46.84116100000000       -0.03146800000000       -0.03384900000000
C           48.20254200000000       -0.04405700000000       -0.03604000000000
C           49.47676100000000       -0.03375100000000       -0.04080500000000
C           50.66522400000000       -0.01495300000000       -0.04696100000000
C           52.01758399999999        0.00983200000000       -0.03109400000000
C           53.11785199999999        0.01112300000000       -0.01448500000000
C           62.38691899999999        0.01112300000000       -0.01448500000000
C           63.84514500000000       -0.01071400000000       -0.03235800000000
C           64.97907300000000       -0.03146800000000       -0.03384900000000
C           66.34045500000001       -0.04405700000000       -0.03604000000000
C           67.61467399999999       -0.03375100000000       -0.04080500000000
C           68.80313599999999       -0.01495300000000       -0.04696100000000
C           70.15549700000000        0.00983200000000       -0.03109400000000
C           71.25576400000000        0.01112300000000       -0.01448500000000
C           80.52483200000000        0.01112300000000       -0.01448500000000
C           81.98305800000000       -0.01071400000000       -0.03235800000000
C           83.11698599999998       -0.03146800000000       -0.03384900000000
C           84.47836800000000       -0.04405700000000       -0.03604000000000
C           85.75258699999999       -0.03375100000000       -0.04080500000000
C           86.94104899999999       -0.01495300000000       -0.04696100000000
C           88.29340999999998        0.00983200000000       -0.03109400000000
C           89.39367699999998        0.01112300000000       -0.01448500000000
Co          57.78629400000000        0.01985900000000       -0.04599000000000
C           54.36469900000000        0.00081600000000        0.02791400000000
C           55.02163999999999        0.98119400000000        0.67553600000000
C           54.38222200000000        2.03541700000000        1.46602000000000
C           55.32196200000000        2.84181200000000        1.91921000000000
C           56.61879800000000        2.35215900000000        1.44455800000000
N           56.43872700000000        1.17095400000000        0.65965900000000
C           57.80342099999999        2.94765900000000        1.69220800000000
C           57.83419400000000        4.20599300000000        2.46682300000000
C           58.13649400000000        4.18183200000000        3.83994000000000
C           58.17900500000000        5.37501300000000        4.56904600000000
C           57.92759400000000        6.59800200000000        3.93054500000000
O           57.97662099999999        7.77962800000000        4.66753200000000
C           57.62889800000000        6.62345100000000        2.55723800000000
C           57.58215600000000        5.43158000000000        1.82771500000000
C           59.10215199999999        2.40746300000000        1.22076100000000
C           60.37217200000000        3.13802100000000        1.31510100000000
C           61.32568499999999        2.34898200000000        0.86269300000000
N           59.26983600000000        1.21776200000000        0.73155000000000
C           60.67028300000000        1.10543100000000        0.47722100000000
C           61.28638899999999        0.00081600000000        0.02791400000000
C           60.53700000000000       -1.21406500000000       -0.36004900000000
C           61.07613400000000       -2.42048600000000       -0.48525100000000
C           60.04260400000000       -3.30066300000000       -0.99584200000000
C           58.94338300000000       -2.57033400000000       -1.15110200000000
N           59.16517900000000       -1.21792900000000       -0.75453100000000
C           57.68514999999999       -3.06595400000000       -1.76136500000000
C           57.74799200000000       -4.26275900000000       -2.63565600000000
C           57.07087000000000       -5.44344000000000       -2.28154700000000
C           57.13700100000000       -6.56813100000000       -3.11076800000000
C           57.88056400000000       -6.52408500000000       -4.29890400000000
O           57.94948399999999       -7.63592200000000       -5.13522900000000
C           58.56162399999999       -5.35290400000000       -4.64947100000000
C           58.50060100000000       -4.22780100000000       -3.82024800000000
C           56.50990700000000       -2.43523600000000       -1.56765600000000
C           55.23305899999999       -2.78993200000000       -2.18238900000000
C           54.34479399999999       -1.94848300000000       -1.69408100000000
C           55.04252300000000       -1.04811300000000       -0.76813900000000
N           56.30857699999999       -1.32474700000000       -0.69204100000000
H           53.32602700000000        2.16100100000000        1.66131200000000
H           55.13990500000000        3.71220200000000        2.53739400000000
H           58.33568600000000        3.24127700000000        4.34327100000000
H           58.40932000000000        5.35001500000000        5.62946600000000
H           57.78907600000000        8.68106800000000        4.23134800000000
H           57.43549699999999        7.56499000000000        2.05478600000000
H           57.35484899999999        5.46183300000000        0.76700100000000
H           60.52101800000000        4.14354600000000        1.68840100000000
H           62.37647900000000        2.60136400000000        0.80556400000000
H           62.10296699999999       -2.69527400000000       -0.28128600000000
H           60.16059199999999       -4.34790100000000       -1.24315000000000
H           56.49468600000000       -5.49029000000000       -1.36470700000000
H           56.60948100000000       -7.47173000000000       -2.82974800000000
H           57.48231499999999       -8.50433300000000       -4.89947800000000
H           59.13890100000000       -5.31437900000000       -5.56477500000000
H           59.03117700000000       -3.32716400000000       -4.10537700000000
H           55.02923600000000       -3.57154200000000       -2.90377000000000
H           53.29420699999999       -1.93759600000000       -1.95426200000000
Co          75.92420600000000        0.01985900000000       -0.04599000000000
C           72.50261200000000        0.00081600000000        0.02791400000000
C           73.15955299999999        0.98119400000000        0.67553600000000
C           72.52013500000000        2.03541700000000        1.46602000000000
C           73.45987400000000        2.84181200000000        1.91921000000000
C           74.75671099999998        2.35215900000000        1.44455800000000
N           74.57664000000000        1.17095400000000        0.65965900000000
C           75.94133399999998        2.94765900000000        1.69220800000000
C           75.97210600000000        4.20599300000000        2.46682300000000
C           76.27440700000000        4.18183200000000        3.83994000000000
C           76.31691800000000        5.37501300000000        4.56904600000000
C           76.06550700000000        6.59800200000000        3.93054500000000
O           76.11453400000001        7.77962800000000        4.66753200000000
C           75.76681100000000        6.62345100000000        2.55723800000000
C           75.72006900000000        5.43158000000000        1.82771500000000
C           77.24006500000000        2.40746300000000        1.22076100000000
C           78.51008500000000        3.13802100000000        1.31510100000000
C           79.46359699999998        2.34898200000000        0.86269300000000
N           77.40774899999998        1.21776200000000        0.73155000000000
C           78.80819600000000        1.10543100000000        0.47722100000000
C           79.42430200000000        0.00081600000000        0.02791400000000
C           78.67491300000000       -1.21406500000000       -0.36004900000000
C           79.21404699999999       -2.42048600000000       -0.48525100000000
C           78.18051699999998       -3.30066300000000       -0.99584200000000
C           77.08129499999998       -2.57033400000000       -1.15110200000000
N           77.30309099999999       -1.21792900000000       -0.75453100000000
C           75.82306199999998       -3.06595400000000       -1.76136500000000
C           75.88590499999999       -4.26275900000000       -2.63565600000000
C           75.20878200000000       -5.44344000000000       -2.28154700000000
C           75.27491400000000       -6.56813100000000       -3.11076800000000
C           76.01847700000000       -6.52408500000000       -4.29890400000000
O           76.08739700000000       -7.63592200000000       -5.13522900000000
C           76.69953599999998       -5.35290400000000       -4.64947100000000
C           76.63851400000000       -4.22780100000000       -3.82024800000000
C           74.64782000000000       -2.43523600000000       -1.56765600000000
C           73.37097199999999       -2.78993200000000       -2.18238900000000
C           72.48270599999998       -1.94848300000000       -1.69408100000000
C           73.18043600000000       -1.04811300000000       -0.76813900000000
N           74.44649000000000       -1.32474700000000       -0.69204100000000
H           71.46393999999999        2.16100100000000        1.66131200000000
H           73.27781700000000        3.71220200000000        2.53739400000000
H           76.47359899999999        3.24127700000000        4.34327100000000
H           76.54723299999999        5.35001500000000        5.62946600000000
H           75.92698900000001        8.68106800000000        4.23134800000000
H           75.57340999999998        7.56499000000000        2.05478600000000
H           75.49276200000000        5.46183300000000        0.76700100000000
H           78.65893100000000        4.14354600000000        1.68840100000000
H           80.51439200000000        2.60136400000000        0.80556400000000
H           80.24087900000001       -2.69527400000000       -0.28128600000000
H           78.29850499999999       -4.34790100000000       -1.24315000000000
H           74.63259799999999       -5.49029000000000       -1.36470700000000
H           74.74739300000000       -7.47173000000000       -2.82974800000000
H           75.62022699999999       -8.50433300000000       -4.89947800000000
H           77.27681399999999       -5.31437900000000       -5.56477500000000
H           77.16909000000000       -3.32716400000000       -4.10537700000000
H           73.16714800000000       -3.57154200000000       -2.90377000000000
H           71.43212000000000       -1.93759600000000       -1.95426200000000
254
 energy: -462.583689161495 gnorm: 0.743239340502 xtb: 6.5.1 (b24c23e)
Co          38.25768447557837        0.02292779735553       -0.03106667820103
C           34.91986788248782       -0.11180786366492       -0.17777713676233
C           35.59168677563893       -1.28205541723643       -0.14468874866420
C           34.93562481910461       -2.58155793873136       -0.13409122698845
C           35.88292443094360       -3.50813777620492       -0.03001831985820
C           37.17980153197450       -2.82438756865584        0.02167918706736
N           36.99399864685038       -1.42255584547485       -0.05244536919569
C           38.38053794954055       -3.44854515140475        0.17127816954163
C           38.40626925589391       -4.92885193622171        0.28326487700629
C           38.21167033716139       -5.73030341918918       -0.84971511522067
C           38.23745538042203       -7.12050003376662       -0.74102585970265
C           38.45940970422473       -7.72896179075488        0.49982795099246
O           38.48568668046124       -9.11061816391476        0.62493087067689
C           38.65688968374152       -6.92845370032634        1.63378981061469
C           38.62847877991540       -5.53730369856254        1.52553696011898
C           39.65845763940371       -2.73363004273938        0.23409207194454
C           40.94981628782113       -3.38530886651449        0.45951929136564
C           41.89437673743914       -2.44732194105208        0.41692169803699
N           39.80619303048869       -1.43777610652828        0.05085971620599
C           41.21304649204707       -1.19101647625927        0.15439541767779
C           41.79722315593891        0.00696848521711       -0.02691391907227
C           41.04665302549755        1.22824471247794       -0.29509677699616
C           41.60579160750870        2.38500107376198       -0.73023464642470
C           40.57621932637122        3.37208333573789       -0.79085910042461
C           39.42144980261532        2.78345171955857       -0.39055082103576
N           39.64673823176578        1.41766374589718       -0.07403624602621
C           38.14390258934904        3.49903212897582       -0.26363859297944
C           38.14743819011147        4.98568495852936       -0.21477837318422
C           38.75789229914101        5.65118965010132        0.85809722909994
C           38.77507680310583        7.04554082009233        0.90873468464198
C           38.18734316714421        7.79564174219416       -0.11848039499098
O           38.20843275701068        9.18085008354780       -0.04982747003315
C           37.58897136559268        7.13317264833653       -1.19733943311550
C           37.56785926997820        5.73965084046396       -1.24561907623317
C           36.96550635247991        2.83873312804833       -0.17697817679105
C           35.64962757272536        3.44352646224959       -0.01647510318315
C           34.77849803898408        2.43502949387657       -0.00510979790668
C           35.53590024134603        1.19738552755599       -0.14490029842608
N           36.82658178156500        1.42725347675969       -0.24349650778402
H           33.83640742360186       -0.15431460514738       -0.20425804841618
H           33.87307368316771       -2.77904880303630       -0.18303162333220
H           35.69267347066739       -4.57175982530075        0.01745482290697
H           38.03887123025649       -5.27289559126407       -1.81924427985731
H           38.08393644504540       -7.73117522066150       -1.62351341487575
H           38.34134890428572       -9.70293119083466       -0.16730278146864
H           38.83124277406009       -7.38845046687959        2.59993289763484
H           38.77998676685143       -4.92762223843771        2.41177782649180
H           41.13547880680137       -4.43445615082695        0.62702055701389
H           42.95414930055024       -2.62243710430052        0.54189546025132
H           42.64806992947291        2.53195848933026       -0.96269739311115
H           40.68956866691519        4.40399012329411       -1.08557812383271
H           39.21449827723746        5.08233759410271        1.66209572428413
H           39.24199708929305        7.54755214720798        1.74908922506981
H           37.78976637332654        9.73827430699993       -0.76637965015684
H           37.13969412548412        7.70473457865357       -2.00131060387142
H           37.10474425079776        5.24196791781021       -2.09280163099683
H           35.39526734691876        4.49037432085199        0.08071476379836
H           33.70972309347987        2.53374508902882        0.10126225695691
Co          95.50545143635216       -0.02977533822051       -0.02683537886423
C           98.84296312230737        0.08252182512307       -0.19179029247805
C           98.17120953339008        1.24536648095590       -0.32680862727275
C           98.82716274740595        2.53289720587138       -0.50288897085854
C           97.87982530678190        3.46485346572201       -0.53283389015350
C           96.58292270806595        2.79582292457882       -0.38358895269936
N           96.76863901592827        1.39735780693490       -0.25599841443159
C           95.38248455060129        3.43485504071385       -0.32524224619926
C           95.35658402278420        4.91583995924920       -0.42662958190965
C           95.55113559462235        5.54643669304923       -1.66288098982611
C           95.52533636612640        6.93784675602570       -1.75477468494847
C           95.30338305362444        7.71802940279075       -0.61405999800890
O           95.27711810416241        9.10337415486529       -0.68848135394011
C           95.10590513783617        7.08850982788875        0.62301869724039
C           95.13432044808911        5.69621967574136        0.71548466226904
C           94.10424038199560        2.73613178237064       -0.16039041748992
C           92.81300358502850        3.41352999479766       -0.03063772923662
C           91.86849573579890        2.47903794816908        0.06150124291461
N           93.95652005779273        1.42783874474087       -0.15551030528236
C           92.55016716937747        1.19806058386232       -0.01772605226400
C           91.96399607747978       -0.01296587073402       -0.02566039005709
C           92.71655946513960       -1.26049150782582       -0.11550105640144
C           92.15701087763742       -2.46730609557128       -0.38007959081000
C           93.18699120064498       -3.45344964340686       -0.29868978213163
C           94.34130078409447       -2.81362662600598        0.01303946440997
N           94.11580083091785       -1.41621073659029        0.12982562420752
C           95.61900548429170       -3.50342736271151        0.24132063678463
C           95.61540039300451       -4.96760213952738        0.50299521036895
C           95.00490479792353       -5.47228172407098        1.66021940374211
C           94.98771684961351       -6.84493715028429        1.91038050210009
C           95.57545243007768       -7.73465017198629        1.00141258562480
O           95.55437012082282       -9.09569162542383        1.26810298105799
C           96.17382105573742       -7.23383098619870       -0.16133090895331
C           96.19494624194988       -5.86164938496499       -0.40903862720666
C           96.79725265716631       -2.83751784070234        0.23233605639535
C           98.11315350307217       -3.41292981818062        0.47794050640258
C           98.98428996269342       -2.41323122039291        0.34451428117750
C           98.22688327475129       -1.20847936453795        0.02863995366474
N           96.93629396766124       -1.45007599814603       -0.03622817068578
H           99.92639866002185        0.12074380897260       -0.22411972282699
H           99.88971915298488        2.72135850295643       -0.57968032373651
H           98.07012341336615        4.52428770573502       -0.63846365907214
H           95.72392787490470        4.95465842268576       -2.55675630734067
H           95.67885999133975        7.41558806685004       -2.71575161933404
H           95.42144492455316        9.57586934067635       -1.55750670104460
H           94.93155429188950        7.68236590222274        1.51317092467287
H           94.98281112349405        5.22000251779527        1.68002897913787
H           92.62734891153902        4.47587808240781       -0.01549428850609
H           90.80873532965009        2.67042151815982        0.16024498829833
H           91.11478836137562       -2.64652585358775       -0.58925139364147
H           93.07328154755447       -4.51688670726636       -0.44229794430309
H           94.54830022904653       -4.79395614192105        2.37427778496949
H           94.52080008819023       -7.22118493225039        2.81406695954416
H           95.97302871872833       -9.75014533971279        0.63893462432714
H           96.62310251581245       -7.91482730601452       -0.87497964224790
H           96.65805455557977       -5.49066555338520       -1.31886775647010
H           98.36753030949053       -4.43500191210594        0.72432580299402
H          100.05307184253911       -2.49566483849129        0.46393983727291
C           44.26556539499518        0.01086979801516       -0.01493285242893
C           45.62808857634699       -0.00982251666204       -0.03214578184064
C           46.88266956010698       -0.03204829238615       -0.03376008322338
C           48.17625646531287       -0.04409774821893       -0.03600200619626
C           49.45376976625453       -0.03395954023379       -0.04091754369162
C           50.66737497398168       -0.01460805753514       -0.04740764778666
C           51.95427664827736        0.00905513399864       -0.03194045652200
C           53.13768388760607        0.00908008983892       -0.01595800490083
C           62.48341599740237        0.00360979156816       -0.02106894804755
C           63.79875588695893       -0.01049127047071       -0.03310605678651
C           65.02582220220162       -0.03203874170457       -0.03368628037959
C           66.32298661970594       -0.04415361513570       -0.03612677396953