      -----------------------------------------------------------      
     |                   =====================                   |     
     |                           x T B                           |     
     |                   =====================                   |     
     |                         S. Grimme                         |     
     |          Mulliken Center for Theoretical Chemistry        |     
     |                    University of Bonn                     |     
      -----------------------------------------------------------      

   * xtb version 6.5.1 (b24c23e) compiled by 'conda@728c89f4b128' on 2022-07-12

   xtb is free software: you can redistribute it and/or modify it under
   the terms of the GNU Lesser General Public License as published by
   the Free Software Foundation, either version 3 of the License, or
   (at your option) any later version.
   
   xtb is distributed in the hope that it will be useful,
   but WITHOUT ANY WARRANTY; without even the implied warranty of
   MERCHANTABILITY or FITNESS FOR A PARTICULAR PURPOSE.  See the
   GNU Lesser General Public License for more details.
   
   Cite this work as:
   * C. Bannwarth, E. Caldeweyher, S. Ehlert, A. Hansen, P. Pracht,
     J. Seibert, S. Spicher, S. Grimme, WIREs Comput. Mol. Sci., 2020, 11,
     e01493. DOI: 10.1002/wcms.1493
   
   for GFN2-xTB:
   * C. Bannwarth, S. Ehlert and S. Grimme., J. Chem. Theory Comput., 2019,
     15, 1652-1671. DOI: 10.1021/acs.jctc.8b01176
   for GFN1-xTB:
   * S. Grimme, C. Bannwarth, P. Shushkov, J. Chem. Theory Comput., 2017,
     13, 1989-2009. DOI: 10.1021/acs.jctc.7b00118
   for GFN0-xTB:
   * P. Pracht, E. Caldeweyher, S. Ehlert, S. Grimme, ChemRxiv, 2019, preprint.
     DOI: 10.26434/chemrxiv.8326202.v1
   for GFN-FF:
   * S. Spicher and S. Grimme, Angew. Chem. Int. Ed., 2020, 59, 15665-15673.
     DOI: 10.1002/anie.202004239
   
   for ALPB and GBSA implicit solvation:
   * S. Ehlert, M. Stahn, S. Spicher, S. Grimme, J. Chem. Theory Comput.,
     2021, 17, 4250-4261. DOI: 10.1021/acs.jctc.1c00471
   
   for DFT-D4:
   * E. Caldeweyher, C. Bannwarth and S. Grimme, J. Chem. Phys., 2017,
     147, 034112. DOI: 10.1063/1.4993215
   * E. Caldeweyher, S. Ehlert, A. Hansen, H. Neugebauer, S. Spicher,
     C. Bannwarth and S. Grimme, J. Chem. Phys., 2019, 150, 154122.
     DOI: 10.1063/1.5090222
   * E. Caldeweyher, J.-M. Mewes, S. Ehlert and S. Grimme, Phys. Chem. Chem. Phys.
     2020, 22, 8499-8512. DOI: 10.1039/D0CP00502A
   
   for sTDA-xTB:
   * S. Grimme and C. Bannwarth, J. Chem. Phys., 2016, 145, 054103.
     DOI: 10.1063/1.4959605
   
   in the mass-spec context:
   * V. Asgeirsson, C. Bauer and S. Grimme, Chem. Sci., 2017, 8, 4879.
     DOI: 10.1039/c7sc00601b
   * J. Koopman and S. Grimme, ACS Omega 2019, 4, 12, 15120-15133.
     DOI: 10.1021/acsomega.9b02011
   
   for metadynamics refer to:
   * S. Grimme, J. Chem. Theory Comput., 2019, 155, 2847-2862
     DOI: 10.1021/acs.jctc.9b00143
   
   for SPH calculations refer to:
   * S. Spicher and S. Grimme, J. Chem. Theory Comput., 2021, 17, 1701-1714
     DOI: 10.1021/acs.jctc.0c01306
   
   with help from (in alphabetical order)
   P. Atkinson, C. Bannwarth, F. Bohle, G. Brandenburg, E. Caldeweyher
   M. Checinski, S. Dohm, S. Ehlert, S. Ehrlich, I. Gerasimov, C. Hölzer
   A. Katbashev, J. Koopman, C. Lavigne, S. Lehtola, F. März, M. Müller,
   F. Musil, H. Neugebauer, J. Pisarek, C. Plett, P. Pracht, F. Pultar,
   J. Seibert, P. Shushkov, S. Spicher, M. Stahn, M. Steiner, T. Strunk,
   J. Stückrath, T. Rose, and J. Unsleber
   
 * started run on 2022/07/30 at 04:32:43.062     

           -------------------------------------------------
          |                Calculation Setup                |
           -------------------------------------------------

          program call               : xtb Ni_PhCHO_C8_2.xyz --gfn 1 --opt -T 48
          hostname                   : cx3-15-15.cx3.hpc.ic.ac.uk
          coordinate file            : Ni_PhCHO_C8_2.xyz
          omp threads                :                     1

   ID    Z sym.   atoms
    1   28 Ni     1, 61
    2    6 C      2-6, 8-13, 15-19, 21-26, 28-33, 35-40, 62-66, 68-73, 75-79,
                  81-86, 88-93, 95-100, 121-128
    3    7 N      7, 20, 27, 41, 67, 80, 87, 101
    4    8 O      14, 34, 74, 94
    5    1 H      42-60, 102-120
########################################################################
[WARNING] Please study the warnings concerning your input carefully
-1- prog_main_parseArguments: Unknown option '-T' provided
########################################################################

           -------------------------------------------------
          |                 G F N 1 - x T B                 |
           -------------------------------------------------

        Reference                      10.1021/acs.jctc.7b00118
      * Hamiltonian:
        H0-scaling (s, p, d)           1.850000    2.250000    2.000000
        zeta-weighting                 0.000000
      * Dispersion:
        s8                             2.400000
        a1                             0.630000
        a2                             5.000000
        s9                             0.000000
      * Repulsion:
        kExp                           1.500000
        rExp                           1.000000
      * Coulomb:
        alpha                          2.000000
        third order                    atomic
        anisotropic                    false
      * Halogen bond correction:
        rad-scale                      1.300000
        damping                        0.440000


          ...................................................
          :                      SETUP                      :
          :.................................................:
          :  # basis functions                 448          :
          :  # atomic orbitals                 446          :
          :  # shells                          258          :
          :  # electrons                       426          :
          :  # halogen bonds                     0          :
          :  max. iterations                   250          :
          :  Hamiltonian                  GFN1-xTB          :
          :  restarted?                      false          :
          :  GBSA solvation                  false          :
          :  PC potential                    false          :
          :  electronic temp.          300.0000000     K    :
          :  accuracy                    1.0000000          :
          :  -> integral cutoff          0.2500000E+02      :
          :  -> integral neglect         0.1000000E-07      :
          :  -> SCF convergence          0.1000000E-05 Eh   :
          :  -> wf. convergence          0.2000000E-04 e    :
          :  Broyden damping             0.4000000          :
          ...................................................

 iter      E             dE          RMSdq      gap      omega  full diag
   1   -235.3528394 -0.235353E+03  0.108E+01    0.18       0.0  T
   2   -160.3595858  0.749933E+02  0.131E+01    0.12       1.0  T
   3   -228.8597524 -0.685002E+02  0.704E+00    0.26       1.0  T
   4   -202.4384397  0.264213E+02  0.653E+00    0.02       1.0  T
   5     12.0275650  0.214466E+03  0.108E+01    0.03       1.0  T
   6   -219.9394720 -0.231967E+03  0.514E+00    0.13       1.0  T
   7   -234.4367179 -0.144972E+02  0.374E+00    0.43       1.0  T
   8   -235.6517900 -0.121507E+01  0.317E+00    0.17       1.0  T
   9   -235.9618291 -0.310039E+00  0.289E+00    0.07       1.0  T
  10   -236.2358809 -0.274052E+00  0.261E+00    0.04       1.0  T
  11   -235.7332920  0.502589E+00  0.285E+00    0.15       1.0  T
  12   -236.1099478 -0.376656E+00  0.231E+00    0.03       1.0  T
  13   -236.1074858  0.246200E-02  0.231E+00    0.03       1.0  T
  14   -235.1675300  0.939956E+00  0.243E+00    0.19       1.0  T
  15   -235.2246639 -0.571339E-01  0.220E+00    0.18       1.0  T
  16   -236.8609695 -0.163631E+01  0.906E-01    0.22       1.0  T
  17   -236.9014058 -0.404363E-01  0.802E-01    0.26       1.0  T
  18   -236.9310400 -0.296342E-01  0.680E-01    0.26       1.0  T
  19   -236.9858923 -0.548522E-01  0.470E-01    0.34       1.0  T
  20   -237.0082718 -0.223795E-01  0.364E-01    0.36       1.0  T
  21   -237.0114285 -0.315668E-02  0.333E-01    0.36       1.0  T
  22   -237.0177056 -0.627714E-02  0.246E-01    0.37       1.0  T
  23   -237.0239808 -0.627521E-02  0.209E-01    0.38       1.0  T
  24   -237.0289311 -0.495032E-02  0.171E-01    0.40       1.0  T
  25   -237.0318287 -0.289753E-02  0.142E-01    0.41       1.0  T
  26   -237.0337847 -0.195606E-02  0.124E-01    0.41       1.0  T
  27   -237.0347716 -0.986850E-03  0.112E-01    0.41       1.0  T
  28   -237.0351906 -0.419032E-03  0.107E-01    0.41       1.0  T
  29   -237.0355034 -0.312826E-03  0.101E-01    0.41       1.0  T
  30   -237.0359357 -0.432232E-03  0.923E-02    0.41       1.0  T
  31   -237.0361966 -0.260959E-03  0.861E-02    0.41       1.0  T
  32   -237.0365857 -0.389068E-03  0.758E-02    0.41       1.0  T
  33   -237.0369816 -0.395927E-03  0.636E-02    0.41       1.0  T
  34   -237.0370745 -0.928657E-04  0.608E-02    0.41       1.0  T
  35   -237.0372794 -0.204878E-03  0.544E-02    0.41       1.0  T
  36   -237.0376043 -0.324964E-03  0.415E-02    0.41       1.0  T
  37   -237.0377862 -0.181832E-03  0.328E-02    0.41       1.0  T
  38   -237.0379780 -0.191837E-03  0.209E-02    0.41       1.0  T
  39   -237.0380647 -0.866629E-04  0.113E-02    0.41       1.0  T
  40   -237.0380889 -0.242619E-04  0.641E-03    0.40       1.4  T
  41   -237.0380982 -0.922662E-05  0.268E-03    0.40       3.3  T
  42   -237.0380996 -0.143272E-05  0.146E-03    0.40       6.1  T
  43   -237.0381001 -0.514347E-06  0.516E-04    0.40      17.1  T
  44   -237.0381002 -0.547602E-07  0.190E-04    0.40      46.5  T
  45   -237.0381002 -0.717645E-08  0.738E-05    0.40     119.7  T

   *** convergence criteria satisfied after 45 iterations ***

         #    Occupation            Energy/Eh            Energy/eV
      -------------------------------------------------------------
         1        2.0000           -0.7930500             -21.5800
       ...           ...                  ...                  ...
       207        2.0000           -0.4089519             -11.1281
       208        2.0000           -0.4086998             -11.1213
       209        2.0000           -0.4078348             -11.0977
       210        2.0000           -0.4012260             -10.9179
       211        2.0000           -0.3987931             -10.8517
       212        1.9999           -0.3871412             -10.5346
       213        1.9992           -0.3855029             -10.4901 (HOMO)
       214        0.0009           -0.3706737             -10.0865 (LUMO)
       215                         -0.3513041              -9.5595
       216                         -0.3497094              -9.5161
       217                         -0.3457677              -9.4088
       218                         -0.3433476              -9.3430
       ...                                ...                  ...
       446                          2.6519739              72.1639
      -------------------------------------------------------------
                  HL-Gap            0.0148292 Eh            0.4035 eV
             Fermi-level           -0.3780103 Eh          -10.2862 eV

 SCC (total)                   0 d,  0 h,  0 min,  2.503 sec
 SCC setup                      ...        0 min,  0.005 sec (  0.199%)
 Dispersion                     ...        0 min,  0.003 sec (  0.133%)
 classical contributions        ...        0 min,  0.001 sec (  0.051%)
 integral evaluation            ...        0 min,  0.119 sec (  4.766%)
 iterations                     ...        0 min,  2.080 sec ( 83.120%)
 molecular gradient             ...        0 min,  0.283 sec ( 11.292%)
 printout                       ...        0 min,  0.011 sec (  0.438%)

         :::::::::::::::::::::::::::::::::::::::::::::::::::::
         ::                     SUMMARY                     ::
         :::::::::::::::::::::::::::::::::::::::::::::::::::::
         :: total energy            -232.929568423264 Eh    ::
         :: gradient norm              1.483534991017 Eh/a0 ::
         :: HOMO-LUMO gap              0.403522076926 eV    ::
         ::.................................................::
         :: SCC energy              -237.038100172315 Eh    ::
         :: -> electrostatic           0.314837874349 Eh    ::
         :: repulsion energy           4.220673237626 Eh    ::
         :: dispersion energy         -0.112141488575 Eh    ::
         :: halogen bond corr.         0.000000000000 Eh    ::
         :: add. restraining           0.000000000000 Eh    ::
         :: total charge              -0.000000000000 e     ::
         :::::::::::::::::::::::::::::::::::::::::::::::::::::

      ----------------------------------------------------------- 
     |                   =====================                   |
     |                        A N C O P T                        |
     |                   =====================                   |
     |               Approximate Normal Coordinate               |
     |                Rational Function Optimizer                |
      ----------------------------------------------------------- 

          ...................................................
          :                      SETUP                      :
          :.................................................:
          :   optimization level            normal          :
          :   max. optcycles                   384          :
          :   ANC micro-cycles                  20          :
          :   degrees of freedom               378          :
          :.................................................:
          :   RF solver                   davidson          :
          :   write xtbopt.log                true          :
          :   linear?                        false          :
          :   energy convergence         0.5000000E-05 Eh   :
          :   grad. convergence          0.1000000E-02 Eh/α :
          :   maximium RF displ.         1.0000000          :
          :   Hlow (freq-cutoff)         0.1000000E-01      :
          :   Hmax (freq-cutoff)         5.0000000          :
          :   S6 in model hess.         20.0000000          :
          ...................................................

generating ANC from model Hessian ...
Using Lindh-Hessian (1995)
 Shifting diagonal of input Hessian by    1.0021246927409432E-002
 Lowest  eigenvalues of input Hessian
    0.010000    0.010006    0.010018    0.000000    0.000000    0.000000
    0.000000    0.000000    0.000000    0.010031    0.010043    0.010133
    0.010146    0.010256    0.010349    0.010381    0.010456    0.010463
 Highest eigenvalues
    2.252858    2.493564    2.755519    3.073325    3.447560    3.685614


........................................................................
.............................. CYCLE    1 ..............................
........................................................................
   1   -237.0381002 -0.237038E+03  0.369E-05    0.40       0.0  T
   2   -237.0381002 -0.812292E-10  0.275E-05    0.40     321.6  T
   3   -237.0381002  0.151260E-09  0.330E-05    0.40     268.2  T
     SCC iter.                  ...        0 min,  0.143 sec
     gradient                   ...        0 min,  0.285 sec
 * total energy  :  -232.9295684 Eh     change       -0.1049898E-08 Eh
   gradient norm :     1.4835370 Eh/α   predicted     0.0000000E+00 (-100.00%)
   displ. norm   :     0.4760573 α      lambda       -0.6514723E+00
   maximum displ.:     0.3043065 α      in ANC's #377, #375, #368, ...

........................................................................
.............................. CYCLE    2 ..............................
........................................................................
   1   -237.0682699 -0.237068E+03  0.263E-01    0.76       0.0  T
   2   -237.0546985  0.135714E-01  0.288E-01    0.77       1.0  T
   3   -237.0762778 -0.215793E-01  0.122E-01    0.77       1.0  T
   4   -237.0803295 -0.405167E-02  0.305E-02    0.76       1.0  T
   5   -237.0803234  0.608533E-05  0.224E-02    0.77       1.0  T
   6   -237.0804076 -0.842123E-04  0.873E-03    0.76       1.0  T
   7   -237.0804349 -0.273003E-04  0.301E-03    0.76       2.9  T
   8   -237.0804382 -0.334189E-05  0.790E-04    0.76      11.2  T
   9   -237.0804384 -0.138873E-06  0.352E-04    0.76      25.1  T
  10   -237.0804384 -0.365259E-07  0.125E-04    0.76      70.8  T
  11   -237.0804384 -0.577433E-08  0.333E-05    0.76     265.1  T
     SCC iter.                  ...        0 min,  0.513 sec
     gradient                   ...        0 min,  0.287 sec
 * total energy  :  -233.3188666 Eh     change       -0.3892982E+00 Eh
   gradient norm :     0.4529553 Eh/α   predicted    -0.3995636E+00 (   2.64%)
   displ. norm   :     0.4274831 α      lambda       -0.1336658E+00
   maximum displ.:     0.1167437 α      in ANC's #124, #377, #103, ...

........................................................................
.............................. CYCLE    3 ..............................
........................................................................
   1   -237.1654824 -0.237165E+03  0.127E-01    1.02       0.0  T
   2   -237.1676883 -0.220594E-02  0.591E-02    1.01       1.0  T
   3   -237.1685430 -0.854700E-03  0.313E-02    1.02       1.0  T
   4   -237.1687752 -0.232152E-03  0.159E-02    1.02       1.0  T
   5   -237.1688084 -0.332692E-04  0.956E-03    1.02       1.0  T
   6   -237.1688339 -0.254836E-04  0.215E-03    1.02       4.1  T
   7   -237.1688347 -0.800321E-06  0.841E-04    1.02      10.5  T
   8   -237.1688349 -0.147545E-06  0.348E-04    1.02      25.4  T
   9   -237.1688349 -0.449926E-07  0.152E-04    1.02      58.3  T
  10   -237.1688349 -0.942751E-08  0.473E-05    1.02     187.0  T
     SCC iter.                  ...        0 min,  0.462 sec
     gradient                   ...        0 min,  0.284 sec
 * total energy  :  -233.4068768 Eh     change       -0.8801019E-01 Eh
   gradient norm :     0.1678698 Eh/α   predicted    -0.7904608E-01 ( -10.19%)
   displ. norm   :     0.5439251 α      lambda       -0.5466805E-01
   maximum displ.:     0.2041709 α      in ANC's #89, #103, #124, ...

........................................................................
.............................. CYCLE    4 ..............................
........................................................................
   1   -237.1994454 -0.237199E+03  0.101E-01    1.12       0.0  T
   2   -237.2006835 -0.123812E-02  0.499E-02    1.11       1.0  T
   3   -237.2012592 -0.575700E-03  0.252E-02    1.12       1.0  T
   4   -237.2014089 -0.149632E-03  0.142E-02    1.12       1.0  T
   5   -237.2014532 -0.443644E-04  0.710E-03    1.12       1.2  T
   6   -237.2014651 -0.118569E-04  0.153E-03    1.12       5.8  T
   7   -237.2014656 -0.508424E-06  0.650E-04    1.12      13.6  T
   8   -237.2014657 -0.891021E-07  0.353E-04    1.12      25.0  T
   9   -237.2014657 -0.490674E-07  0.113E-04    1.12      78.4  T
  10   -237.2014657 -0.454173E-08  0.308E-05    1.12     286.9  T
     SCC iter.                  ...        0 min,  0.465 sec
     gradient                   ...        0 min,  0.287 sec
 * total energy  :  -233.4401049 Eh     change       -0.3322811E-01 Eh
   gradient norm :     0.1066664 Eh/α   predicted    -0.3542110E-01 (   6.60%)
   displ. norm   :     0.5155299 α      lambda       -0.2203583E-01
   maximum displ.:     0.1667700 α      in ANC's #89, #103, #23, ...

........................................................................
.............................. CYCLE    5 ..............................
........................................................................
   1   -237.2115094 -0.237212E+03  0.484E-02    1.18       0.0  T
   2   -237.2116943 -0.184835E-03  0.260E-02    1.17       1.0  T
   3   -237.2118337 -0.139460E-03  0.141E-02    1.17       1.0  T
   4   -237.2118958 -0.621024E-04  0.842E-03    1.17       1.1  T
   5   -237.2119093 -0.134463E-04  0.317E-03    1.17       2.8  T
   6   -237.2119117 -0.241447E-05  0.825E-04    1.17      10.7  T
   7   -237.2119118 -0.149481E-06  0.344E-04    1.17      25.7  T
   8   -237.2119119 -0.310689E-07  0.176E-04    1.17      50.2  T
   9   -237.2119119 -0.108788E-07  0.413E-05    1.17     214.3  T
     SCC iter.                  ...        0 min,  0.421 sec
     gradient                   ...        0 min,  0.304 sec
 * total energy  :  -233.4526231 Eh     change       -0.1251814E-01 Eh
   gradient norm :     0.0685976 Eh/α   predicted    -0.1394614E-01 (  11.41%)
   displ. norm   :     0.5017928 α      lambda       -0.9912563E-02
   maximum displ.:     0.1691948 α      in ANC's #24, #23, #34, ...

........................................................................
.............................. CYCLE    6 ..............................
........................................................................
   1   -237.2041605 -0.237204E+03  0.206E-02    1.19       0.0  T
   2   -237.2041803 -0.197837E-04  0.131E-02    1.19       1.0  T
   3   -237.2042145 -0.341628E-04  0.675E-03    1.19       1.3  T
   4   -237.2042210 -0.649401E-05  0.450E-03    1.19       2.0  T
   5   -237.2042250 -0.406350E-05  0.138E-03    1.19       6.4  T
   6   -237.2042258 -0.724712E-06  0.244E-04    1.19      36.3  T
   7   -237.2042258 -0.682795E-08  0.138E-04    1.19      63.9  T
   8   -237.2042258 -0.566996E-08  0.607E-05    1.19     145.7  T
     SCC iter.                  ...        0 min,  0.372 sec
     gradient                   ...        0 min,  0.288 sec
 * total energy  :  -233.4600521 Eh     change       -0.7429079E-02 Eh
   gradient norm :     0.0311508 Eh/α   predicted    -0.6204287E-02 ( -16.49%)
   displ. norm   :     0.6035270 α      lambda       -0.6730868E-02
   maximum displ.:     0.2527647 α      in ANC's #23, #24, #32, ...

........................................................................
.............................. CYCLE    7 ..............................
........................................................................
   1   -237.1971860 -0.237197E+03  0.183E-02    1.21       0.0  T
   2   -237.1972063 -0.203473E-04  0.972E-03    1.21       1.0  T
   3   -237.1972208 -0.144841E-04  0.557E-03    1.21       1.6  T
   4   -237.1972242 -0.340366E-05  0.325E-03    1.21       2.7  T
   5   -237.1972257 -0.153521E-05  0.115E-03    1.21       7.7  T
   6   -237.1972264 -0.686654E-06  0.221E-04    1.21      39.9  T
   7   -237.1972264 -0.775921E-08  0.708E-05    1.21     124.8  T
   8   -237.1972264 -0.102847E-08  0.446E-05    1.21     198.3  T
     SCC iter.                  ...        0 min,  0.372 sec
     gradient                   ...        0 min,  0.284 sec
 * total energy  :  -233.4649443 Eh     change       -0.4892136E-02 Eh
   gradient norm :     0.0254657 Eh/α   predicted    -0.4591290E-02 (  -6.15%)
   displ. norm   :     0.6645782 α      lambda       -0.4906652E-02
   maximum displ.:     0.2809411 α      in ANC's #24, #23, #20, ...

........................................................................
.............................. CYCLE    8 ..............................
........................................................................
   1   -237.1866237 -0.237187E+03  0.153E-02    1.22       0.0  T
   2   -237.1866399 -0.161970E-04  0.782E-03    1.22       1.1  T
   3   -237.1866475 -0.760116E-05  0.483E-03    1.22       1.8  T
   4   -237.1866498 -0.232524E-05  0.275E-03    1.22       3.2  T
   5   -237.1866515 -0.167822E-05  0.104E-03    1.22       8.5  T
   6   -237.1866519 -0.389896E-06  0.177E-04    1.22      50.0  T
   7   -237.1866519 -0.732172E-08  0.724E-05    1.22     122.1  T
     SCC iter.                  ...        0 min,  0.332 sec
     gradient                   ...        0 min,  0.285 sec
 * total energy  :  -233.4670137 Eh     change       -0.2069438E-02 Eh
   gradient norm :     0.0246524 Eh/α   predicted    -0.3536879E-02 (  70.91%)
   displ. norm   :     0.4835297 α      lambda       -0.4121881E-02
   maximum displ.:     0.2703748 α      in ANC's #23, #24, #32, ...

........................................................................
.............................. CYCLE    9 ..............................
........................................................................
   1   -237.1903273 -0.237190E+03  0.106E-02    1.23       0.0  T
   2   -237.1903327 -0.538774E-05  0.953E-03    1.23       1.0  T
   3   -237.1903495 -0.167803E-04  0.337E-03    1.23       2.6  T
   4   -237.1903482  0.129409E-05  0.259E-03    1.23       3.4  T
   5   -237.1903499 -0.172081E-05  0.969E-04    1.23       9.1  T
   6   -237.1903502 -0.248609E-06  0.225E-04    1.23      39.4  T
   7   -237.1903502 -0.104727E-07  0.858E-05    1.23     103.1  T
   8   -237.1903502 -0.184599E-08  0.393E-05    1.23     225.1  T
     SCC iter.                  ...        0 min,  0.371 sec
     gradient                   ...        0 min,  0.283 sec
 * total energy  :  -233.4694621 Eh     change       -0.2448420E-02 Eh
   gradient norm :     0.0165937 Eh/α   predicted    -0.2542796E-02 (   3.85%)
   displ. norm   :     0.4299468 α      lambda       -0.1642910E-02
   maximum displ.:     0.2542256 α      in ANC's #23, #24, #20, ...

........................................................................
.............................. CYCLE   10 ..............................
........................................................................
   1   -237.1885844 -0.237189E+03  0.602E-03    1.23       0.0  T
   2   -237.1885856 -0.123251E-05  0.391E-03    1.23       2.3  T
   3   -237.1885891 -0.346965E-05  0.207E-03    1.23       4.3  T
   4   -237.1885899 -0.815374E-06  0.122E-03    1.23       7.2  T
   5   -237.1885903 -0.341992E-06  0.325E-04    1.23      27.2  T
   6   -237.1885903 -0.251395E-07  0.973E-05    1.23      90.8  T
   7   -237.1885903 -0.146190E-08  0.507E-05    1.23     174.2  T
     SCC iter.                  ...        0 min,  0.327 sec
     gradient                   ...        0 min,  0.281 sec
 * total energy  :  -233.4707811 Eh     change       -0.1318921E-02 Eh
   gradient norm :     0.0113406 Eh/α   predicted    -0.9733162E-03 ( -26.20%)
   displ. norm   :     0.5970605 α      lambda       -0.2009657E-02
   maximum displ.:     0.3553437 α      in ANC's #23, #24, #20, ...

........................................................................
.............................. CYCLE   11 ..............................
........................................................................
   1   -237.1852783 -0.237185E+03  0.870E-03    1.23       0.0  T
   2   -237.1852816 -0.331954E-05  0.512E-03    1.23       1.7  T
   3   -237.1852876 -0.602283E-05  0.260E-03    1.23       3.4  T
   4   -237.1852887 -0.108663E-05  0.165E-03    1.23       5.4  T
   5   -237.1852893 -0.622881E-06  0.445E-04    1.23      19.8  T
   6   -237.1852894 -0.683037E-07  0.964E-05    1.23      91.7  T
   7   -237.1852894 -0.147324E-08  0.457E-05    1.23     193.3  T
     SCC iter.                  ...        0 min,  0.327 sec
     gradient                   ...        0 min,  0.287 sec
 * total energy  :  -233.4720930 Eh     change       -0.1311990E-02 Eh
   gradient norm :     0.0122079 Eh/α   predicted    -0.1363035E-02 (   3.89%)
   displ. norm   :     0.5123194 α      lambda       -0.1230195E-02
   maximum displ.:     0.2971144 α      in ANC's #23, #24, #20, ...

........................................................................
.............................. CYCLE   12 ..............................
........................................................................
   1   -237.1798628 -0.237180E+03  0.536E-03    1.23       0.0  T
   2   -237.1798649 -0.206180E-05  0.281E-03    1.23       3.1  T
   3   -237.1798660 -0.119099E-05  0.149E-03    1.23       5.9  T
   4   -237.1798662 -0.115004E-06  0.738E-04    1.23      12.0  T
   5   -237.1798662  0.694249E-08  0.454E-04    1.23      19.5  T
   6   -237.1798662 -0.931827E-07  0.735E-05    1.23     120.3  T
   7   -237.1798662 -0.118303E-08  0.276E-05    1.23     320.3  T
     SCC iter.                  ...        0 min,  0.325 sec
     gradient                   ...        0 min,  0.288 sec
 * total energy  :  -233.4728045 Eh     change       -0.7114337E-03 Eh
   gradient norm :     0.0122904 Eh/α   predicted    -0.7765499E-03 (   9.15%)
   displ. norm   :     0.3933961 α      lambda       -0.6209201E-03
   maximum displ.:     0.2213974 α      in ANC's #23, #24, #20, ...

........................................................................
.............................. CYCLE   13 ..............................
........................................................................
   1   -237.1731196 -0.237173E+03  0.418E-03    1.23       0.0  T
   2   -237.1731203 -0.719371E-06  0.259E-03    1.23       3.4  T
   3   -237.1731211 -0.829586E-06  0.139E-03    1.23       6.3  T
   4   -237.1731213 -0.130918E-06  0.912E-04    1.23       9.7  T
   5   -237.1731215 -0.220090E-06  0.239E-04    1.23      37.0  T
   6   -237.1731215 -0.218899E-07  0.724E-05    1.23     122.0  T
   7   -237.1731215 -0.117498E-08  0.216E-05    1.23     409.1  T
     SCC iter.                  ...        0 min,  0.327 sec
     gradient                   ...        0 min,  0.284 sec
 * total energy  :  -233.4731859 Eh     change       -0.3814305E-03 Eh
   gradient norm :     0.0083160 Eh/α   predicted    -0.3585109E-03 (  -6.01%)
   displ. norm   :     0.3756624 α      lambda       -0.5321098E-03
   maximum displ.:     0.1952942 α      in ANC's #23, #24, #20, ...

........................................................................
.............................. CYCLE   14 ..............................
........................................................................
   1   -237.1669697 -0.237167E+03  0.450E-03    1.24       0.0  T
   2   -237.1669710 -0.131333E-05  0.282E-03    1.24       3.1  T
   3   -237.1669722 -0.116989E-05  0.139E-03    1.24       6.3  T
   4   -237.1669723 -0.111313E-06  0.102E-03    1.24       8.7  T
   5   -237.1669726 -0.295687E-06  0.267E-04    1.24      33.1  T
   6   -237.1669726 -0.181861E-07  0.885E-05    1.24      99.9  T
   7   -237.1669726 -0.125758E-08  0.257E-05    1.24     343.5  T
     SCC iter.                  ...        0 min,  0.327 sec
     gradient                   ...        0 min,  0.285 sec
 * total energy  :  -233.4734857 Eh     change       -0.2997945E-03 Eh
   gradient norm :     0.0058166 Eh/α   predicted    -0.3036033E-03 (   1.27%)
   displ. norm   :     0.2290838 α      lambda       -0.2435980E-03
   maximum displ.:     0.1038330 α      in ANC's #8, #20, #10, ...

........................................................................
.............................. CYCLE   15 ..............................
........................................................................
   1   -237.1663883 -0.237166E+03  0.205E-03    1.24       0.0  T
   2   -237.1663885 -0.252901E-06  0.148E-03    1.24       6.0  T
   3   -237.1663891 -0.596698E-06  0.571E-04    1.24      15.5  T
   4   -237.1663892 -0.497290E-07  0.461E-04    1.24      19.2  T
   5   -237.1663892 -0.545212E-07  0.143E-04    1.24      61.7  T
   6   -237.1663892 -0.192136E-08  0.312E-05    1.24     283.1  T
     SCC iter.                  ...        0 min,  0.282 sec
     gradient                   ...        0 min,  0.285 sec
 * total energy  :  -233.4736702 Eh     change       -0.1845403E-03 Eh
   gradient norm :     0.0053405 Eh/α   predicted    -0.1281962E-03 ( -30.53%)
   displ. norm   :     0.2758071 α      lambda       -0.2424216E-03
   maximum displ.:     0.1375087 α      in ANC's #8, #20, #10, ...

........................................................................
.............................. CYCLE   16 ..............................
........................................................................
   1   -237.1648619 -0.237165E+03  0.191E-03    1.24       0.0  T
   2   -237.1648622 -0.292636E-06  0.105E-03    1.24       8.4  T
   3   -237.1648624 -0.171482E-06  0.482E-04    1.24      18.3  T
   4   -237.1648624 -0.141783E-07  0.394E-04    1.24      22.5  T
   5   -237.1648625 -0.421245E-07  0.128E-04    1.24      68.8  T
   6   -237.1648625 -0.380675E-08  0.251E-05    1.24     351.9  T
     SCC iter.                  ...        0 min,  0.280 sec
     gradient                   ...        0 min,  0.283 sec
 * total energy  :  -233.4738444 Eh     change       -0.1741525E-03 Eh
   gradient norm :     0.0046026 Eh/α   predicted    -0.1304347E-03 ( -25.10%)
   displ. norm   :     0.2707054 α      lambda       -0.1803113E-03
   maximum displ.:     0.1445766 α      in ANC's #8, #10, #18, ...

........................................................................
.............................. CYCLE   17 ..............................
........................................................................
   1   -237.1635208 -0.237164E+03  0.176E-03    1.24       0.0  T
   2   -237.1635210 -0.210379E-06  0.126E-03    1.24       7.0  T
   3   -237.1635214 -0.401560E-06  0.493E-04    1.24      17.9  T
   4   -237.1635214 -0.330004E-07  0.429E-04    1.24      20.6  T
   5   -237.1635215 -0.456008E-07  0.134E-04    1.24      66.0  T
   6   -237.1635215 -0.214368E-08  0.480E-05    1.24     184.0  T
     SCC iter.                  ...        0 min,  0.282 sec
     gradient                   ...        0 min,  0.300 sec
 * total energy  :  -233.4739690 Eh     change       -0.1245775E-03 Eh
   gradient norm :     0.0047946 Eh/α   predicted    -0.9676495E-04 ( -22.33%)
   displ. norm   :     0.3143129 α      lambda       -0.2008967E-03
   maximum displ.:     0.1705479 α      in ANC's #8, #10, #14, ...

........................................................................
.............................. CYCLE   18 ..............................
........................................................................
   1   -237.1623849 -0.237162E+03  0.217E-03    1.23       0.0  T
   2   -237.1623850 -0.747706E-07  0.175E-03    1.23       5.1  T
   3   -237.1623861 -0.106179E-05  0.606E-04    1.23      14.6  T
   4   -237.1623861 -0.646282E-07  0.487E-04    1.23      18.2  T
   5   -237.1623862 -0.518261E-07  0.133E-04    1.23      66.7  T
   6   -237.1623862 -0.182206E-08  0.461E-05    1.23     191.6  T
     SCC iter.                  ...        0 min,  0.283 sec
     gradient                   ...        0 min,  0.301 sec
 * total energy  :  -233.4740998 Eh     change       -0.1307835E-03 Eh
   gradient norm :     0.0057850 Eh/α   predicted    -0.1103732E-03 ( -15.61%)
   displ. norm   :     0.2921272 α      lambda       -0.1861498E-03
   maximum displ.:     0.1648512 α      in ANC's #8, #18, #14, ...

........................................................................
.............................. CYCLE   19 ..............................
........................................................................
   1   -237.1628756 -0.237163E+03  0.196E-03    1.23       0.0  T
   2   -237.1628759 -0.269270E-06  0.138E-03    1.23       6.4  T
   3   -237.1628765 -0.571560E-06  0.511E-04    1.23      17.3  T
   4   -237.1628765 -0.689412E-07  0.402E-04    1.23      22.0  T
   5   -237.1628766 -0.367204E-07  0.129E-04    1.23      68.6  T
   6   -237.1628766 -0.131126E-08  0.396E-05    1.23     223.0  T
     SCC iter.                  ...        0 min,  0.282 sec
     gradient                   ...        0 min,  0.304 sec
 * total energy  :  -233.4742359 Eh     change       -0.1361328E-03 Eh
   gradient norm :     0.0058837 Eh/α   predicted    -0.1010200E-03 ( -25.79%)
   displ. norm   :     0.3524574 α      lambda       -0.2271505E-03
   maximum displ.:     0.2011981 α      in ANC's #8, #18, #14, ...

........................................................................
.............................. CYCLE   20 ..............................
........................................................................
   1   -237.1645186 -0.237165E+03  0.209E-03    1.23       0.0  T
   2   -237.1645188 -0.252611E-06  0.136E-03    1.23       6.5  T
   3   -237.1645193 -0.464092E-06  0.595E-04    1.23      14.8  T
   4   -237.1645194 -0.899972E-07  0.419E-04    1.23      21.1  T
   5   -237.1645194 -0.373182E-07  0.132E-04    1.23      66.9  T
   6   -237.1645194 -0.284712E-08  0.247E-05    1.23     357.9  T
     SCC iter.                  ...        0 min,  0.280 sec
     gradient                   ...        0 min,  0.302 sec
 * total energy  :  -233.4743776 Eh     change       -0.1417338E-03 Eh
   gradient norm :     0.0054886 Eh/α   predicted    -0.1276855E-03 (  -9.91%)
   displ. norm   :     0.2685033 α      lambda       -0.1365075E-03
   maximum displ.:     0.1614366 α      in ANC's #8, #18, #14, ...
 * RMSD in coord.:     0.4914423 α      energy gain  -0.5448092E+00 Eh

generating ANC from model Hessian ...
Using Lindh-Hessian (1995)
 Shifting diagonal of input Hessian by    1.0023581899987354E-002
 Lowest  eigenvalues of input Hessian
    0.010000    0.010007    0.010017    0.010021    0.000000    0.000000
    0.000000    0.000000    0.000000    0.000000    0.010030    0.010134
    0.010146    0.010246    0.010298    0.010369    0.010389    0.010497
 Highest eigenvalues
    2.243163    2.244107    2.244200    2.493830    2.812982    3.034657


........................................................................
.............................. CYCLE   21 ..............................
........................................................................
   1   -237.1657651 -0.237166E+03  0.158E-03    1.23       0.0  T
   2   -237.1657652 -0.849679E-07  0.113E-03    1.23       7.8  T
   3   -237.1657656 -0.359867E-06  0.488E-04    1.23      18.1  T
   4   -237.1657656 -0.635634E-07  0.347E-04    1.23      25.5  T
   5   -237.1657657 -0.245729E-07  0.927E-05    1.23      95.4  T
   6   -237.1657657 -0.900258E-09  0.364E-05    1.23     242.6  T
     SCC iter.                  ...        0 min,  0.281 sec
     gradient                   ...        0 min,  0.285 sec
 * total energy  :  -233.4744749 Eh     change       -0.9729655E-04 Eh
   gradient norm :     0.0040299 Eh/α   predicted     0.0000000E+00 (-100.00%)
   displ. norm   :     0.0476850 α      lambda       -0.4346561E-04
   maximum displ.:     0.0212906 α      in ANC's #18, #8, #9, ...

........................................................................
.............................. CYCLE   22 ..............................
........................................................................
   1   -237.1661929 -0.237166E+03  0.958E-04    1.23       0.0  T
   2   -237.1661929 -0.126142E-07  0.793E-04    1.23      11.1  T
   3   -237.1661931 -0.180304E-06  0.287E-04    1.23      30.8  T
   4   -237.1661931 -0.150965E-08  0.247E-04    1.23      35.8  T
   5   -237.1661931 -0.148925E-07  0.626E-05    1.23     141.2  T
   6   -237.1661931 -0.796575E-09  0.185E-05    1.23     477.8  T
     SCC iter.                  ...        0 min,  0.281 sec
     gradient                   ...        0 min,  0.287 sec
 * total energy  :  -233.4745025 Eh     change       -0.2758447E-04 Eh
   gradient norm :     0.0026892 Eh/α   predicted    -0.2729771E-04 (  -1.04%)
   displ. norm   :     0.1349735 α      lambda       -0.1250351E-03
   maximum displ.:     0.0668138 α      in ANC's #8, #9, #28, ...

........................................................................
.............................. CYCLE   23 ..............................
........................................................................
   1   -237.1672240 -0.237167E+03  0.272E-03    1.23       0.0  T
   2   -237.1672241 -0.746637E-07  0.223E-03    1.23       4.0  T
   3   -237.1672257 -0.156071E-05  0.754E-04    1.23      11.7  T
   4   -237.1672257 -0.377560E-07  0.662E-04    1.23      13.4  T
   5   -237.1672258 -0.103914E-06  0.172E-04    1.23      51.5  T
   6   -237.1672258 -0.525219E-08  0.506E-05    1.23     174.7  T
     SCC iter.                  ...        0 min,  0.281 sec
     gradient                   ...        0 min,  0.301 sec
 * total energy  :  -233.4745069 Eh     change       -0.4406258E-05 Eh
   gradient norm :     0.0047974 Eh/α   predicted    -0.6365849E-04 (1344.73%)
   displ. norm   :     0.0577362 α      lambda       -0.1242576E-03
   maximum displ.:     0.0259833 α      in ANC's #18, #8, #9, ...

........................................................................
.............................. CYCLE   24 ..............................
........................................................................
   1   -237.1671287 -0.237167E+03  0.509E-04    1.23       0.0  T
   2   -237.1671287 -0.148751E-07  0.377E-04    1.23      23.4  T
   3   -237.1671287 -0.125709E-07  0.175E-04    1.23      50.6  T
   4   -237.1671287  0.185560E-08  0.123E-04    1.23      71.6  T
     SCC iter.                  ...        0 min,  0.188 sec
     gradient                   ...        0 min,  0.283 sec
 * total energy  :  -233.4745551 Eh     change       -0.4817974E-04 Eh
   gradient norm :     0.0035497 Eh/α   predicted    -0.6233628E-04 (  29.38%)
   displ. norm   :     0.0484583 α      lambda       -0.6805253E-04
   maximum displ.:     0.0190259 α      in ANC's #40, #26, #8, ...

........................................................................
.............................. CYCLE   25 ..............................
........................................................................
   1   -237.1665480 -0.237167E+03  0.121E-03    1.23       0.0  T
   2   -237.1665480 -0.296521E-07  0.109E-03    1.23       8.1  T
   3   -237.1665483 -0.210639E-06  0.461E-04    1.23      19.2  T
   4   -237.1665482  0.271874E-07  0.363E-04    1.23      24.3  T
   5   -237.1665483 -0.386424E-07  0.871E-05    1.23     101.4  T
   6   -237.1665483 -0.236406E-08  0.276E-05    1.23     320.8  T
     SCC iter.                  ...        0 min,  0.279 sec
     gradient                   ...        0 min,  0.301 sec
 * total energy  :  -233.4745637 Eh     change       -0.8590411E-05 Eh
   gradient norm :     0.0023790 Eh/α   predicted    -0.3410639E-04 ( 297.03%)
   displ. norm   :     0.0516051 α      lambda       -0.5727392E-04
   maximum displ.:     0.0290869 α      in ANC's #9, #8, #25, ...

........................................................................
.............................. CYCLE   26 ..............................
........................................................................
   1   -237.1666141 -0.237167E+03  0.313E-04    1.23       0.0  T
   2   -237.1666141 -0.659875E-08  0.189E-04    1.23      46.8  T
   3   -237.1666141 -0.283379E-08  0.923E-05    1.23      95.8  T
     SCC iter.                  ...        0 min,  0.143 sec
     gradient                   ...        0 min,  0.284 sec
 * total energy  :  -233.4745903 Eh     change       -0.2666008E-04 Eh
   gradient norm :     0.0020619 Eh/α   predicted    -0.2871382E-04 (   7.70%)
   displ. norm   :     0.0802927 α      lambda       -0.4396620E-04
   maximum displ.:     0.0442899 α      in ANC's #9, #8, #25, ...

........................................................................
.............................. CYCLE   27 ..............................
........................................................................
   1   -237.1669721 -0.237167E+03  0.601E-04    1.23       0.0  T
   2   -237.1669721 -0.148419E-07  0.479E-04    1.23      18.4  T
   3   -237.1669721 -0.535782E-07  0.191E-04    1.23      46.4  T
   4   -237.1669721  0.498574E-09  0.163E-04    1.23      54.4  T
     SCC iter.                  ...        0 min,  0.190 sec
     gradient                   ...        0 min,  0.300 sec
 * total energy  :  -233.4746069 Eh     change       -0.1661073E-04 Eh
   gradient norm :     0.0020147 Eh/α   predicted    -0.2212535E-04 (  33.20%)
   displ. norm   :     0.0709773 α      lambda       -0.2875061E-04
   maximum displ.:     0.0416822 α      in ANC's #8, #9, #25, ...

........................................................................
.............................. CYCLE   28 ..............................
........................................................................
   1   -237.1671018 -0.237167E+03  0.253E-04    1.23       0.0  T
   2   -237.1671018 -0.561241E-08  0.108E-04    1.23      82.2  T
   3   -237.1671018 -0.119027E-08  0.578E-05    1.23     152.9  T
     SCC iter.                  ...        0 min,  0.144 sec
     gradient                   ...        0 min,  0.302 sec
 * total energy  :  -233.4746312 Eh     change       -0.2428362E-04 Eh
   gradient norm :     0.0014121 Eh/α   predicted    -0.1444942E-04 ( -40.50%)
   displ. norm   :     0.2580649 α      lambda       -0.5130976E-04
   maximum displ.:     0.1578119 α      in ANC's #9, #8, #12, ...

........................................................................
.............................. CYCLE   29 ..............................
........................................................................
   1   -237.1671076 -0.237167E+03  0.127E-03    1.23       0.0  T
   2   -237.1671077 -0.906572E-07  0.846E-04    1.23      10.5  T
   3   -237.1671078 -0.145804E-06  0.354E-04    1.23      24.9  T
   4   -237.1671078 -0.161953E-07  0.277E-04    1.23      31.9  T
   5   -237.1671079 -0.186799E-07  0.776E-05    1.23     114.0  T
   6   -237.1671079 -0.110592E-08  0.255E-05    1.23     346.1  T
     SCC iter.                  ...        0 min,  0.283 sec
     gradient                   ...        0 min,  0.284 sec
 * total energy  :  -233.4746812 Eh     change       -0.4998513E-04 Eh
   gradient norm :     0.0020220 Eh/α   predicted    -0.2641530E-04 ( -47.15%)
   displ. norm   :     0.1628311 α      lambda       -0.3223130E-04
   maximum displ.:     0.1012357 α      in ANC's #9, #8, #12, ...

........................................................................
.............................. CYCLE   30 ..............................
........................................................................
   1   -237.1672113 -0.237167E+03  0.415E-04    1.23       0.0  T
   2   -237.1672113 -0.417685E-08  0.289E-04    1.23      30.6  T
   3   -237.1672113 -0.156800E-07  0.140E-04    1.23      63.3  T
   4   -237.1672113 -0.157436E-08  0.986E-05    1.23      89.7  T
     SCC iter.                  ...        0 min,  0.188 sec
     gradient                   ...        0 min,  0.282 sec
 * total energy  :  -233.4747090 Eh     change       -0.2774431E-04 Eh
   gradient norm :     0.0017402 Eh/α   predicted    -0.1654461E-04 ( -40.37%)
   displ. norm   :     0.2748871 α      lambda       -0.3684971E-04
   maximum displ.:     0.1702543 α      in ANC's #9, #8, #16, ...

........................................................................
.............................. CYCLE   31 ..............................
........................................................................
   1   -237.1671917 -0.237167E+03  0.633E-04    1.23       0.0  T
   2   -237.1671917 -0.981026E-08  0.411E-04    1.23      21.5  T
   3   -237.1671918 -0.398010E-07  0.197E-04    1.23      44.9  T
   4   -237.1671918 -0.898243E-08  0.129E-04    1.23      68.4  T
     SCC iter.                  ...        0 min,  0.189 sec
     gradient                   ...        0 min,  0.301 sec
 * total energy  :  -233.4747513 Eh     change       -0.4236818E-04 Eh
   gradient norm :     0.0013258 Eh/α   predicted    -0.1904489E-04 ( -55.05%)
   displ. norm   :     0.2658671 α      lambda       -0.3053445E-04
   maximum displ.:     0.1650115 α      in ANC's #9, #8, #16, ...

........................................................................
.............................. CYCLE   32 ..............................
........................................................................
   1   -237.1667305 -0.237167E+03  0.657E-04    1.23       0.0  T
   2   -237.1667305 -0.562238E-09  0.504E-04    1.23      17.5  T
   3   -237.1667306 -0.891937E-07  0.200E-04    1.23      44.1  T
   4   -237.1667306 -0.110762E-07  0.129E-04    1.23      68.5  T
   5   -237.1667306 -0.264933E-08  0.375E-05    1.23     235.9  T
     SCC iter.                  ...        0 min,  0.235 sec
     gradient                   ...        0 min,  0.285 sec
 * total energy  :  -233.4747753 Eh     change       -0.2402016E-04 Eh
   gradient norm :     0.0023812 Eh/α   predicted    -0.1574794E-04 ( -34.44%)
   displ. norm   :     0.2005924 α      lambda       -0.3941790E-04
   maximum displ.:     0.1228645 α      in ANC's #9, #8, #16, ...

........................................................................
.............................. CYCLE   33 ..............................
........................................................................
   1   -237.1663107 -0.237166E+03  0.494E-04    1.23       0.0  T
   2   -237.1663107 -0.454577E-08  0.328E-04    1.23      26.9  T
   3   -237.1663108 -0.259169E-07  0.159E-04    1.23      55.6  T
   4   -237.1663108 -0.659509E-08  0.989E-05    1.23      89.4  T
     SCC iter.                  ...        0 min,  0.190 sec
     gradient                   ...        0 min,  0.302 sec
 * total energy  :  -233.4748033 Eh     change       -0.2798084E-04 Eh
   gradient norm :     0.0016253 Eh/α   predicted    -0.2050532E-04 ( -26.72%)
   displ. norm   :     0.3035608 α      lambda       -0.2401197E-04
   maximum displ.:     0.1828901 α      in ANC's #9, #8, #16, ...

........................................................................
.............................. CYCLE   34 ..............................
........................................................................
   1   -237.1654245 -0.237165E+03  0.626E-04    1.23       0.0  T
   2   -237.1654245 -0.712166E-08  0.394E-04    1.23      22.4  T
   3   -237.1654245 -0.285848E-07  0.232E-04    1.23      38.1  T
   4   -237.1654245 -0.154214E-07  0.123E-04    1.23      71.8  T
   5   -237.1654245 -0.267451E-08  0.208E-05    1.23     425.2  T
     SCC iter.                  ...        0 min,  0.234 sec
     gradient                   ...        0 min,  0.286 sec
 * total energy  :  -233.4748248 Eh     change       -0.2147130E-04 Eh
   gradient norm :     0.0018377 Eh/α   predicted    -0.1249954E-04 ( -41.78%)
   displ. norm   :     0.1890775 α      lambda       -0.1548476E-04
   maximum displ.:     0.1128012 α      in ANC's #9, #8, #16, ...

........................................................................
.............................. CYCLE   35 ..............................
........................................................................
   1   -237.1651730 -0.237165E+03  0.481E-04    1.23       0.0  T
   2   -237.1651730 -0.158725E-07  0.241E-04    1.23      36.6  T
   3   -237.1651730 -0.501532E-08  0.153E-04    1.23      57.8  T
   4   -237.1651731 -0.301168E-08  0.885E-05    1.23      99.8  T
     SCC iter.                  ...        0 min,  0.189 sec
     gradient                   ...        0 min,  0.282 sec
 * total energy  :  -233.4748411 Eh     change       -0.1627165E-04 Eh
   gradient norm :     0.0014021 Eh/α   predicted    -0.7867773E-05 ( -51.65%)
   displ. norm   :     0.2067719 α      lambda       -0.1973962E-04
   maximum displ.:     0.1124992 α      in ANC's #9, #8, #16, ...

........................................................................
.............................. CYCLE   36 ..............................
........................................................................
   1   -237.1649619 -0.237165E+03  0.755E-04    1.23       0.0  T
   2   -237.1649620 -0.476218E-07  0.351E-04    1.23      25.2  T
   3   -237.1649620 -0.190198E-07  0.214E-04    1.23      41.4  T
   4   -237.1649620 -0.899249E-08  0.125E-04    1.23      71.0  T
   5   -237.1649620 -0.259834E-08  0.506E-05    1.23     174.8  T
     SCC iter.                  ...        0 min,  0.235 sec
     gradient                   ...        0 min,  0.283 sec
 * total energy  :  -233.4748540 Eh     change       -0.1292735E-04 Eh
   gradient norm :     0.0012797 Eh/α   predicted    -0.1006170E-04 ( -22.17%)
   displ. norm   :     0.0452682 α      lambda       -0.8312747E-05
   maximum displ.:     0.0189668 α      in ANC's #25, #16, #6, ...

........................................................................
.............................. CYCLE   37 ..............................
........................................................................
   1   -237.1649616 -0.237165E+03  0.330E-04    1.23       0.0  T
   2   -237.1649616 -0.976476E-08  0.177E-04    1.23      50.0  T
   3   -237.1649616 -0.228613E-08  0.994E-05    1.23      88.9  T
     SCC iter.                  ...        0 min,  0.144 sec
     gradient                   ...        0 min,  0.300 sec
 * total energy  :  -233.4748572 Eh     change       -0.3214233E-05 Eh
   gradient norm :     0.0014672 Eh/α   predicted    -0.4161223E-05 (  29.46%)
   displ. norm   :     0.0475832 α      lambda       -0.9330366E-05
   maximum displ.:     0.0214367 α      in ANC's #8, #12, #9, ...

........................................................................
.............................. CYCLE   38 ..............................
........................................................................
   1   -237.1649846 -0.237165E+03  0.378E-04    1.23       0.0  T
   2   -237.1649846 -0.842681E-08  0.181E-04    1.23      48.8  T
   3   -237.1649846  0.878828E-09  0.154E-04    1.23      57.5  T
     SCC iter.                  ...        0 min,  0.142 sec
     gradient                   ...        0 min,  0.282 sec
 * total energy  :  -233.4748625 Eh     change       -0.5253153E-05 Eh
   gradient norm :     0.0010354 Eh/α   predicted    -0.4671375E-05 ( -11.07%)
   displ. norm   :     0.0301068 α      lambda       -0.5733517E-05
   maximum displ.:     0.0113235 α      in ANC's #8, #12, #9, ...

........................................................................
.............................. CYCLE   39 ..............................
........................................................................
   1   -237.1650170 -0.237165E+03  0.235E-04    1.23       0.0  T
   2   -237.1650170 -0.414465E-08  0.146E-04    1.23      60.6  T
   3   -237.1650170 -0.430583E-08  0.759E-05    1.23     116.5  T
     SCC iter.                  ...        0 min,  0.144 sec
     gradient                   ...        0 min,  0.288 sec
 * total energy  :  -233.4748674 Eh     change       -0.4889359E-05 Eh
   gradient norm :     0.0006556 Eh/α   predicted    -0.2869195E-05 ( -41.32%)
   displ. norm   :     0.0442364 α      lambda       -0.4000910E-05
   maximum displ.:     0.0174594 α      in ANC's #12, #20, #24, ...

   *** GEOMETRY OPTIMIZATION CONVERGED AFTER 39 ITERATIONS ***

------------------------------------------------------------------------
 total energy gain   :        -0.5452989 Eh     -342.1802 kcal/mol
 total RMSD          :         0.5853895 a0        0.3098 Å
 total power (kW/mol):       -36.7097988 (step)  -51.7007 (real)
------------------------------------------------------------------------

 ANCopt (total)                0 d,  0 h,  0 min, 27.692 sec
 optimizer setup                ...        0 min,  0.000 sec (  0.001%)
 model hessian                  ...        0 min,  0.089 sec (  0.322%)
 ANC generation                 ...        0 min,  0.048 sec (  0.172%)
 coordinate transformation      ...        0 min,  0.004 sec (  0.015%)
 single point calculation       ...        0 min, 27.504 sec ( 99.322%)
 optimization log               ...        0 min,  0.020 sec (  0.071%)
 hessian update                 ...        0 min,  0.005 sec (  0.018%)
 rational function              ...        0 min,  0.017 sec (  0.061%)

================
 final structure:
================
128
 xtb: 6.5.1 (b24c23e)
Ni          13.29048638817814        0.02313179050991       -0.07091765222756
C            9.89925692828771        0.08543655812988       -0.19337318812056
C           10.56661304317411        1.29102374122815       -0.13925842976482
C            9.90184662495399        2.55808450858207       -0.10928628055735
C           10.86155619824137        3.49530991637058        0.06834274395958
C           12.11456557184501        2.80065300939507        0.12913751406945
N           11.92412595359549        1.44910031801604       -0.01247714604536
C           13.33192732639692        3.41981460754704        0.38120531050270
C           13.35220692461327        4.88608731332604        0.59877580095328
C           13.72244922683030        5.40889024758579        1.84096887076136
C           13.74058668321245        6.77542955458060        2.04423455298240
C           13.39411393004023        7.64944240931769        1.00851866705307
C           13.42456520093014        9.10393868156620        1.24929792782800
O           13.73381475065828        9.60149403797468        2.30144297433812
C           13.02683555004479        7.12727312288316       -0.23390215166835
C           13.00407451156150        5.75845979555603       -0.43544255810306
C           14.53474637273609        2.72796573311365        0.42597118218704
C           15.80477517147775        3.36001350989926        0.62003050991730
C           16.74673061589153        2.39839896042683        0.47230852681797
N           14.69851987304681        1.38367009364247        0.17808516803866
C           16.05128900288945        1.18330900068485        0.18960271198899
C           16.70411408898939       -0.02143455390185       -0.08660939527865
C           16.01651979432522       -1.21582888618009       -0.31824885130409
C           16.67488139448280       -2.45405673081368       -0.58820483711870
C           15.70869107938256       -3.40085784242899       -0.65732585046077
C           14.46182732573394       -2.73648866587510       -0.42627116092630
N           14.66073615145666       -1.38604400003388       -0.25044547674671
C           13.23702364252791       -3.39003247305858       -0.38078603636901
C           13.21706392379098       -4.86563977365436       -0.50667839333149
C           12.55486633695863       -5.47306694728993       -1.57721423949471
C           12.53797060704829       -6.85097530886450       -1.69987641860397
C           13.17995430629682       -7.64972805926010       -0.75052003434688
C           13.17524276687118       -9.12026711117033       -0.85825412912584
O           13.71439408543810       -9.85102312483628       -0.06730391386262
C           13.84104084427516       -7.04212282674689        0.32205331843073
C           13.86182069636523       -5.66579924684590        0.44125618684131
C           12.03008601679305       -2.71626805633725       -0.24268804575778
C           10.75307620290921       -3.36575517745971       -0.18145726216198
C            9.81765203120426       -2.38822993583082       -0.15079370955725
C           10.52398983346505       -1.14390616335886       -0.17096773759093
N           11.88015969554509       -1.35294421134687       -0.19651851674924
H            8.81645560701702        0.10499721757026       -0.23342562152456
H            8.83527293397686        2.69053836404687       -0.19643383703276
H           10.74302046364913        4.56234724107022        0.16347434578434
H           13.98216690500972        4.73293799881018        2.64779203335483
H           14.02183065046165        7.18994489765297        3.00635787467557
H           13.13683569428306        9.71769106497119        0.36925121480810
H           12.76042902187693        7.79851475447894       -1.04389237033967
H           12.73046013482608        5.35587897650762       -1.40420829029303
H           15.94795537623942        4.40852108181692        0.82352971785301
H           17.81877054094124        2.48924275770986        0.53869209477554
H           17.74052468786001       -2.56807581716808       -0.70395730885919
H           15.81950013750609       -4.45429906687305       -0.85551895331767
H           12.06713349436194       -4.85511756199492       -2.32270498538022
H           12.02612420108403       -7.31407488163289       -2.53723834577676
H           12.62731260582776       -9.51049258559256       -1.74243620968485
H           14.33423778707296       -7.67043845350661        1.05594437760950
H           14.36568726207362       -5.19790436570192        1.27942248556610
H           10.60470275518292       -4.43313354939016       -0.16145320405802
H            8.74407506504120       -2.48078536117429       -0.11065748286154
Ni          31.86001742673696       -0.01550731113821       -0.07356250549022
C           35.25120325635873       -0.05892960884118       -0.20545430567064
C           34.58400094129993       -1.26009146597015       -0.32285428144432
C           35.24893451872719       -2.51846098866463       -0.47331744226300
C           34.28943760392183       -3.47159573925277       -0.42992164973916
C           33.03637422611162       -2.79283232622120       -0.27059317994719
N           33.22656368304848       -1.43483205711235       -0.21904274252873
C           31.81922648098419       -3.44181422678237       -0.10874580539153
C           31.79938756736160       -4.92414855532710       -0.10229624183704
C           31.43093052828574       -5.61894196736329        1.05307941902594
C           31.41375015702427       -7.00051787671736        1.05940511991504
C           31.75917772880621       -7.71764843842054       -0.09082480775528
C           31.72983049191393       -9.19161618536012       -0.05990721804555
O           31.42322300005814       -9.83441353325820        0.91117569251007
C           32.12440047812061       -7.02342858447969       -1.24660266749353
C           32.14636163349997       -5.63986377678594       -1.25085963968274
C           30.61624768839238       -2.76373216936778        0.03411206844553
C           29.34641791417624       -3.41724442140582        0.13660293382700
C           28.40420271364759       -2.44466041030630        0.12683871928107
N           30.45211838813046       -1.39790181410072       -0.02038586335420
C           29.09930485627081       -1.20152896575609        0.01942632617229
C           28.44634657915728        0.03023658029796       -0.08280403538396
C           29.13382837771321        1.24539349580387       -0.14260132710873
C           28.47528006559913        2.50932858762747       -0.23391046616813
C           29.44124586003997        3.45650353315048       -0.16700509302173
C           30.68821299360767        2.76624811827809       -0.03238134729576
N           30.48958641742679        1.40450367599409       -0.05083845540093
C           31.91284432735401        3.40692128737061        0.10618549835200
C           31.93228679241631        4.88542782018076        0.19213653830401
C           32.59345639134653        5.63970929265493       -0.78121497797592
C           32.60918115783314        7.02106762308301       -0.70637593310015
C           31.96711943137571        7.67589776805948        0.34736387230492
C           31.96995939637419        9.14682218786616        0.44981768438903
O           31.43044847831329        9.75697372765029        1.33692052013881
C           31.30744247384458        6.92111500937355        1.32295881142436
C           31.28774735580798        5.54183628126956        1.24487053787938
C           33.11994923749586        2.72067702978110        0.14663394012097
C           34.39688021670219        3.35507170716157        0.29946191914621
C           35.33249830989050        2.38343201052366        0.18966537823158
C           34.62636884328506        1.15455850164642       -0.00767434663786
N           33.27016642675109        1.36477286956503       -0.00242437446510
H           36.33397867847335       -0.07241171432953       -0.24863083262314
H           36.31548067187609       -2.63701867145732       -0.57885868293110
H           34.40809217099968       -4.54132549039716       -0.48709706752710
H           31.17192815367874       -5.06509885673709        1.94834461117711
H           31.13400717819432       -7.54819332307835        1.95293427277951
H           32.01739808895788       -9.67341459070449       -1.01869628383530
H           32.38988075990630       -7.57212133484136       -2.14441393315930
H           32.41851146437725       -5.10300692164868       -2.15261476479020
H           29.20357678921533       -4.48405252942448        0.18937839632530
H           27.33220344335385       -2.54434768019961        0.17960341758236
H           27.40965781430831        2.63841503990993       -0.33285650160133
H           29.33033314391028        4.52742448753541       -0.21307195268168
H           33.08120529921904        5.13466573642596       -1.60738012548650
H           33.12004323469408        7.59915721157872       -1.46956637106448
H           32.51706359747825        9.65954205380561       -0.36998055638707
H           30.81432386706943        7.43808179464516        2.13917027847656
H           30.78481170686814        4.95885214632854        2.00809862944093
H           34.54509699507856        4.40867590724731        0.47170003902364
H           36.40608248827527        2.46955110465145        0.24215741876434
C           18.10882732325528       -0.03229019527441       -0.11240491744635
C           19.33278858250218       -0.03058358218751       -0.13384165030488
C           20.67594891903198       -0.02241436023308       -0.14769474064468
C           21.90616958805184       -0.00496139419450       -0.15446346275580
C           23.24451013088547        0.01202314961451       -0.15269382164945
C           24.47463020958289        0.03085008643859       -0.14254817151272
C           25.81772673798848        0.03831268295130       -0.12586266698982
C           27.04162655079185        0.04430503224081       -0.10691891915611

 Bond Distances (Angstroems)
 ---------------------------
Ni1-N7=1.9758        Ni1-N20=1.9737       Ni1-N27=1.9737       Ni1-N41=1.9744       C2-C3=1.3790         C2-C40=1.3792        
C2-H42=1.0837        C3-C2=1.3790         C3-C4=1.4312         C3-N7=1.3726         C4-C3=1.4312         C4-C5=1.3531         
C4-H43=1.0783        C5-C4=1.3531         C5-C6=1.4340         C5-H44=1.0778        C6-C5=1.4340         C6-N7=1.3722         
C6-C8=1.3888         N7-Ni1=1.9758        N7-C3=1.3726         N7-C6=1.3722         C8-C6=1.3888         C8-C9=1.4825         
C8-C17=1.3883        C9-C8=1.4825         C9-C10=1.3977        C9-C16=1.3971        C10-C9=1.3977        C10-C11=1.3817       
C10-H45=1.0841       C11-C10=1.3817       C11-C12=1.3988       C11-H46=1.0847       C12-C11=1.3988       C12-C13=1.4746       
C12-C15=1.3968       C13-C12=1.4746       C13-O14=1.2042       C13-H47=1.1108       O14-C13=1.2042       C15-C12=1.3968       
C15-C16=1.3838       C15-H48=1.0852       C16-C9=1.3971        C16-C15=1.3838       C16-H49=1.0842       C17-C8=1.3883        
C17-C18=1.4318       C17-N20=1.3767       C18-C17=1.4318       C18-C19=1.3542       C18-H50=1.0776       C19-C18=1.3542       
C19-C21=1.4283       C19-H51=1.0779       N20-Ni1=1.9737       N20-C17=1.3767       N20-C21=1.3676       C21-C19=1.4283       
C21-N20=1.3676       C21-C22=1.3978       C22-C21=1.3978       C22-C23=1.3975       C22-C121=1.4050      C23-C22=1.3975       
C23-C24=1.4281       C23-N27=1.3681       C24-C23=1.4281       C24-C25=1.3545       C24-H52=1.0780       C25-C24=1.3545       
C25-C26=1.4316       C25-H53=1.0776       C26-C25=1.4316       C26-N27=1.3763       C26-C28=1.3890       N27-Ni1=1.9737       
N27-C23=1.3681       N27-C26=1.3763       C28-C26=1.3890       C28-C29=1.4811       C28-C37=1.3891       C29-C28=1.4811       
C29-C30=1.3977       C29-C36=1.3981       C30-C29=1.3977       C30-C31=1.3835       C30-H54=1.0842       C31-C30=1.3835       
C31-C32=1.3969       C31-H55=1.0852       C32-C31=1.3969       C32-C33=1.4745       C32-C35=1.3988       C33-C32=1.4745       
C33-O34=1.2043       C33-H56=1.1110       O34-C33=1.2043       C35-C32=1.3988       C35-C36=1.3816       C35-H57=1.0847       
C36-C29=1.3981       C36-C35=1.3816       C36-H58=1.0841       C37-C28=1.3891       C37-C38=1.4340       C37-N41=1.3723       
C38-C37=1.4340       C38-C39=1.3533       C38-H59=1.0778       C39-C38=1.3533       C39-C40=1.4310       C39-H60=1.0783       
C40-C2=1.3792        C40-C39=1.4310       C40-N41=1.3724       N41-Ni1=1.9744       N41-C37=1.3723       N41-C40=1.3724       
H42-C2=1.0837        H43-C4=1.0783        H44-C5=1.0778        H45-C10=1.0841       H46-C11=1.0847       H47-C13=1.1108       
H48-C15=1.0852       H49-C16=1.0842       H50-C18=1.0776       H51-C19=1.0779       H52-C24=1.0780       H53-C25=1.0776       
H54-C30=1.0842       H55-C31=1.0852       H56-C33=1.1110       H57-C35=1.0847       H58-C36=1.0841       H59-C38=1.0778       
H60-C39=1.0783       Ni61-N67=1.9756      Ni61-N80=1.9738      Ni61-N87=1.9736      Ni61-N101=1.9745     C62-C63=1.3790       
C62-C100=1.3792      C62-H102=1.0837      C63-C62=1.3790       C63-C64=1.4312       C63-N67=1.3726       C64-C63=1.4312       
C64-C65=1.3531       C64-H103=1.0783      C65-C64=1.3531       C65-C66=1.4340       C65-H104=1.0778      C66-C65=1.4340       
C66-N67=1.3722       C66-C68=1.3888       N67-Ni61=1.9756      N67-C63=1.3726       N67-C66=1.3722       C68-C66=1.3888       
C68-C69=1.4825       C68-C77=1.3883       C69-C68=1.4825       C69-C70=1.3976       C69-C76=1.3971       C70-C69=1.3976       
C70-C71=1.3817       C70-H105=1.0841      C71-C70=1.3817       C71-C72=1.3988       C71-H106=1.0847      C72-C71=1.3988       
C72-C73=1.4746       C72-C75=1.3968       C73-C72=1.4746       C73-O74=1.2042       C73-H107=1.1109      O74-C73=1.2042       
C75-C72=1.3968       C75-C76=1.3837       C75-H108=1.0852      C76-C69=1.3971       C76-C75=1.3837       C76-H109=1.0842      
C77-C68=1.3883       C77-C78=1.4318       C77-N80=1.3767       C78-C77=1.4318       C78-C79=1.3542       C78-H110=1.0776      
C79-C78=1.3542       C79-C81=1.4283       C79-H111=1.0779      N80-Ni61=1.9738      N80-C77=1.3767       N80-C81=1.3676       
C81-C79=1.4283       C81-N80=1.3676       C81-C82=1.3979       C82-C81=1.3979       C82-C83=1.3974       C82-C128=1.4050      
C83-C82=1.3974       C83-C84=1.4281       C83-N87=1.3681       C84-C83=1.4281       C84-C85=1.3545       C84-H112=1.0780      
C85-C84=1.3545       C85-C86=1.4316       C85-H113=1.0776      C86-C85=1.4316       C86-N87=1.3763       C86-C88=1.3890       
N87-Ni61=1.9736      N87-C83=1.3681       N87-C86=1.3763       C88-C86=1.3890       C88-C89=1.4811       C88-C97=1.3891       
C89-C88=1.4811       C89-C90=1.3977       C89-C96=1.3981       C90-C89=1.3977       C90-C91=1.3835       C90-H114=1.0842      
C91-C90=1.3835       C91-C92=1.3969       C91-H115=1.0852      C92-C91=1.3969       C92-C93=1.4745       C92-C95=1.3988       
C93-C92=1.4745       C93-O94=1.2043       C93-H116=1.1110      O94-C93=1.2043       C95-C92=1.3988       C95-C96=1.3816       
C95-H117=1.0847      C96-C89=1.3981       C96-C95=1.3816       C96-H118=1.0841      C97-C88=1.3891       C97-C98=1.4340       
C97-N101=1.3723      C98-C97=1.4340       C98-C99=1.3533       C98-H119=1.0778      C99-C98=1.3533       C99-C100=1.4310      
C99-H120=1.0783      C100-C62=1.3792      C100-C99=1.4310      C100-N101=1.3724     N101-Ni61=1.9745     N101-C97=1.3723      
N101-C100=1.3724     H102-C62=1.0837      H103-C64=1.0783      H104-C65=1.0778      H105-C70=1.0841      H106-C71=1.0847      
H107-C73=1.1109      H108-C75=1.0852      H109-C76=1.0842      H110-C78=1.0776      H111-C79=1.0779      H112-C84=1.0780      
H113-C85=1.0776      H114-C90=1.0842      H115-C91=1.0852      H116-C93=1.1110      H117-C95=1.0847      H118-C96=1.0841      
H119-C98=1.0778      H120-C99=1.0783      C121-C22=1.4050      C121-C122=1.2242     C122-C121=1.2242     C122-C123=1.3433     
C123-C122=1.3433     C123-C124=1.2304     C124-C123=1.2304     C124-C125=1.3384     C125-C124=1.3384     C125-C126=1.2303     
C126-C125=1.2303     C126-C127=1.3432     C127-C126=1.3432     C127-C128=1.2241     C128-C82=1.4050      C128-C127=1.2241     
 C  H  Rav=1.0845 sigma=0.0096  Rmin=1.0776  Rmax=1.1110    38
 C  C  Rav=1.3943 sigma=0.0514  Rmin=1.2241  Rmax=1.4825    81
 N  C  Rav=1.3723 sigma=0.0031  Rmin=1.3676  Rmax=1.3767    16
 O  C  Rav=1.2043 sigma=0.0000  Rmin=1.2042  Rmax=1.2043     4
 Ni N  Rav=1.9744 sigma=0.0008  Rmin=1.9736  Rmax=1.9758     8

 selected bond angles (degree)
 --------------------
N20-Ni1-N7= 89.55              N27-Ni1-N7=176.45              N27-Ni1-N20= 90.48             N41-Ni1-N7= 90.63              
N41-Ni1-N20=176.39             N41-Ni1-N27= 89.57             C40-C2-C3=124.02               H42-C2-C3=117.98               
H42-C2-C40=117.99              C4-C3-C2=123.37                N7-C3-C2=125.66                N7-C3-C4=110.82                
C5-C4-C3=106.65                H43-C4-C3=124.51               H43-C4-C5=128.83               C6-C5-C4=106.84                
H44-C5-C4=128.26               H44-C5-C6=124.89               N7-C6-C5=110.58                C8-C6-C5=123.89                
C8-C6-N7=125.41                C3-N7-Ni1=126.74               C6-N7-Ni1=128.16               C6-N7-C3=105.08                
C9-C8-C6=118.66                C17-C8-C6=122.90               C17-C8-C9=118.44               C10-C9-C8=120.27               
C16-C9-C8=120.37               C16-C9-C10=119.36              C11-C10-C9=120.28              H45-C10-C9=119.45              
H45-C10-C11=120.27             

 selected dihedral angles (degree)
 ---------------------------------
C4-C3-C2-C40=182.60           C4-C3-C2-H42=  1.16           N7-C3-C2-C40=357.73           N7-C3-C2-H42=176.29           
C5-C4-C3-C2=174.39            C5-C4-C3-N7=358.62            H43-C4-C3-C2=355.44           H43-C4-C3-N7=179.67           
C6-C5-C4-C3=  0.74            C6-C5-C4-H43=179.63           H44-C5-C4-C3=181.52           H44-C5-C4-H43=  0.40          
N7-C6-C5-C4=  0.11            N7-C6-C5-H44=179.36           C8-C6-C5-C4=183.82            C8-C6-C5-H44=  3.08           
C3-N7-Ni1-N20=179.34          C3-N7-Ni1-N27= 88.88          C3-N7-Ni1-N41=355.73          C6-N7-Ni1-N20=  1.03          
C6-N7-Ni1-N27=270.58          C6-N7-Ni1-N41=177.43          Ni1-N7-C3-C2=  7.14           Ni1-N7-C3-C4=182.79           
C6-N7-C3-C2=185.76            C6-N7-C3-C4=  1.41            Ni1-N7-C6-C5=177.66           Ni1-N7-C6-C8=353.87           
C3-N7-C6-C5=359.07            C3-N7-C6-C8=175.28            C9-C8-C6-C5=359.84            C9-C8-C6-N7=184.11            
C17-C8-C6-C5=180.48           C17-C8-C6-N7=  4.75           C10-C9-C8-C6=114.85           C10-C9-C8-C17=294.24          
C16-C9-C8-C6=294.74           C16-C9-C8-C17=114.13          C11-C10-C9-C8=180.04          C11-C10-C9-C16=  0.15         
H45-C10-C9-C8=359.21          H45-C10-C9-C16=179.32         
           -------------------------------------------------
          |                Final Singlepoint                |
           -------------------------------------------------

          ...................................................
          :                      SETUP                      :
          :.................................................:
          :  # basis functions                 448          :
          :  # atomic orbitals                 446          :
          :  # shells                          258          :
          :  # electrons                       426          :
          :  # halogen bonds                     0          :
          :  max. iterations                   250          :
          :  Hamiltonian                  GFN1-xTB          :
          :  restarted?                      false          :
          :  GBSA solvation                  false          :
          :  PC potential                    false          :
          :  electronic temp.          300.0000000     K    :
          :  accuracy                    1.0000000          :
          :  -> integral cutoff          0.2500000E+02      :
          :  -> integral neglect         0.1000000E-07      :
          :  -> SCF convergence          0.1000000E-05 Eh   :
          :  -> wf. convergence          0.2000000E-04 e    :
          :  Broyden damping             0.4000000          :
          ...................................................

 iter      E             dE          RMSdq      gap      omega  full diag
   1   -237.1650170 -0.237165E+03  0.493E-05    1.23       0.0  T
   2   -237.1650170  0.318380E-09  0.410E-05    1.23     215.4  T
   3   -237.1650170 -0.686242E-09  0.217E-05    1.23     408.0  T

   *** convergence criteria satisfied after 3 iterations ***

         #    Occupation            Energy/Eh            Energy/eV
      -------------------------------------------------------------
         1        2.0000           -0.7934408             -21.5906
       ...           ...                  ...                  ...
       207        2.0000           -0.4097863             -11.1509
       208        2.0000           -0.4087267             -11.1220
       209        2.0000           -0.4087222             -11.1219
       210        2.0000           -0.4086526             -11.1200
       211        2.0000           -0.4086494             -11.1199
       212        2.0000           -0.4059591             -11.0467
       213        2.0000           -0.3969223             -10.8008 (HOMO)
       214                         -0.3518202              -9.5735 (LUMO)
       215                         -0.3448573              -9.3840
       216                         -0.3448453              -9.3837
       217                         -0.3422344              -9.3127
       218                         -0.3410923              -9.2816
       ...                                ...                  ...
       446                          1.5959292              43.4274
      -------------------------------------------------------------
                  HL-Gap            0.0451021 Eh            1.2273 eV
             Fermi-level           -0.3743718 Eh          -10.1872 eV

 SCC (total)                   0 d,  0 h,  0 min,  0.563 sec
 SCC setup                      ...        0 min,  0.005 sec (  0.879%)
 Dispersion                     ...        0 min,  0.003 sec (  0.562%)
 classical contributions        ...        0 min,  0.001 sec (  0.221%)
 integral evaluation            ...        0 min,  0.117 sec ( 20.794%)
 iterations                     ...        0 min,  0.144 sec ( 25.574%)
 molecular gradient             ...        0 min,  0.281 sec ( 49.957%)
 printout                       ...        0 min,  0.011 sec (  2.008%)

         :::::::::::::::::::::::::::::::::::::::::::::::::::::
         ::                     SUMMARY                     ::
         :::::::::::::::::::::::::::::::::::::::::::::::::::::
         :: total energy            -233.474867358242 Eh    ::
         :: gradient norm              0.000655861117 Eh/a0 ::
         :: HOMO-LUMO gap              1.227291471655 eV    ::
         ::.................................................::
         :: SCC energy              -237.165017005689 Eh    ::
         :: -> electrostatic           0.287189463062 Eh    ::
         :: repulsion energy           3.803175200309 Eh    ::
         :: dispersion energy         -0.113025552862 Eh    ::
         :: halogen bond corr.         0.000000000000 Eh    ::
         :: add. restraining           0.000000000000 Eh    ::
[...]
     6   6 C    3.919 --     8 C    1.322     7 N    1.222     5 C    1.176
     7   7 N    3.402 --     6 C    1.222     3 C    1.213     1 Ni   0.663
     8   6 C    3.938 --    17 C    1.329     6 C    1.322     9 C    1.026
     9   6 C    3.986 --    16 C    1.386    10 C    1.383     8 C    1.026
    10   6 C    3.988 --    11 C    1.470     9 C    1.383    45 H    0.972
                            15 C    0.100
    11   6 C    3.988 --    10 C    1.470    12 C    1.371    46 H    0.968
                            16 C    0.101
    12   6 C    3.985 --    15 C    1.379    11 C    1.371    13 C    1.048
    13   6 C    3.864 --    14 O    1.809    12 C    1.048    47 H    0.942
    14   8 O    2.005 --    13 C    1.809
    15   6 C    3.993 --    16 C    1.464    12 C    1.379    48 H    0.971
                            10 C    0.100
    16   6 C    3.988 --    15 C    1.464     9 C    1.386    49 H    0.972
                            11 C    0.101
    17   6 C    3.914 --     8 C    1.329    20 N    1.206    18 C    1.182
    18   6 C    3.958 --    19 C    1.638    17 C    1.182    50 H    0.972
    19   6 C    3.961 --    18 C    1.638    21 C    1.190    51 H    0.973
    20   7 N    3.407 --    21 C    1.239    17 C    1.206     1 Ni   0.661
    21   6 C    3.901 --    22 C    1.262    20 N    1.239    19 C    1.190
    22   6 C    3.945 --    23 C    1.264    21 C    1.262   121 C    1.185
    23   6 C    3.902 --    22 C    1.264    27 N    1.237    24 C    1.191
    24   6 C    3.961 --    25 C    1.636    23 C    1.191    52 H    0.973
    25   6 C    3.958 --    24 C    1.636    26 C    1.183    53 H    0.973
    26   6 C    3.914 --    28 C    1.325    27 N    1.208    25 C    1.183
    27   7 N    3.406 --    23 C    1.237    26 C    1.208     1 Ni   0.661
    28   6 C    3.938 --    26 C    1.325    37 C    1.321    29 C    1.031
    29   6 C    3.986 --    30 C    1.383    36 C    1.381    28 C    1.031
    30   6 C    3.988 --    31 C    1.465    29 C    1.383    54 H    0.972
                            35 C    0.101
    31   6 C    3.993 --    30 C    1.465    32 C    1.378    55 H    0.971
    32   6 C    3.984 --    31 C    1.378    35 C    1.370    33 C    1.049
    33   6 C    3.864 --    34 O    1.809    32 C    1.049    56 H    0.942
    34   8 O    2.004 --    33 C    1.809
    35   6 C    3.988 --    36 C    1.470    32 C    1.370    57 H    0.968
                            30 C    0.101
    36   6 C    3.988 --    35 C    1.470    29 C    1.381    58 H    0.972
    37   6 C    3.919 --    28 C    1.321    41 N    1.222    38 C    1.176
    38   6 C    3.963 --    39 C    1.649    37 C    1.176    59 H    0.972
    39   6 C    3.959 --    38 C    1.649    40 C    1.175    60 H    0.975
    40   6 C    3.922 --     2 C    1.364    41 N    1.213    39 C    1.175
    41   7 N    3.402 --    37 C    1.222    40 C    1.213     1 Ni   0.663
    42   1 H    1.000 --     2 C    0.970
    43   1 H    0.997 --     4 C    0.975
    44   1 H    1.004 --     5 C    0.972
    45   1 H    1.003 --    10 C    0.972
    46   1 H    1.005 --    11 C    0.968
    47   1 H    1.010 --    13 C    0.942
    48   1 H    1.000 --    15 C    0.971
    49   1 H    1.003 --    16 C    0.972
    50   1 H    1.004 --    18 C    0.972
    51   1 H    1.001 --    19 C    0.973
    52   1 H    1.001 --    24 C    0.973
    53   1 H    1.003 --    25 C    0.973
    54   1 H    1.004 --    30 C    0.972
    55   1 H    1.000 --    31 C    0.971
    56   1 H    1.010 --    33 C    0.942
    57   1 H    1.005 --    35 C    0.968
    58   1 H    1.004 --    36 C    0.972
    59   1 H    1.004 --    38 C    0.972
    60   1 H    0.997 --    39 C    0.975
    61  28 Ni   3.009 --   101 N    0.663    67 N    0.663    87 N    0.661
                            80 N    0.661
    62   6 C    3.935 --    63 C    1.365   100 C    1.364   102 H    0.970
    63   6 C    3.922 --    62 C    1.365    67 N    1.213    64 C    1.174
    64   6 C    3.959 --    65 C    1.651    63 C    1.174   103 H    0.975
    65   6 C    3.963 --    64 C    1.651    66 C    1.176   104 H    0.972
    66   6 C    3.919 --    68 C    1.322    67 N    1.222    65 C    1.176
    67   7 N    3.402 --    66 C    1.222    63 C    1.213    61 Ni   0.663
    68   6 C    3.938 --    77 C    1.329    66 C    1.322    69 C    1.025
    69   6 C    3.986 --    76 C    1.386    70 C    1.383    68 C    1.025
    70   6 C    3.988 --    71 C    1.470    69 C    1.383   105 H    0.972
                            75 C    0.100
    71   6 C    3.988 --    70 C    1.470    72 C    1.371   106 H    0.968
                            76 C    0.101
    72   6 C    3.985 --    75 C    1.379    71 C    1.371    73 C    1.048
    73   6 C    3.864 --    74 O    1.809    72 C    1.048   107 H    0.942
    74   8 O    2.005 --    73 C    1.809
    75   6 C    3.993 --    76 C    1.464    72 C    1.379   108 H    0.971
                            70 C    0.100
    76   6 C    3.988 --    75 C    1.464    69 C    1.386   109 H    0.972
                            71 C    0.101
    77   6 C    3.914 --    68 C    1.329    80 N    1.206    78 C    1.182
    78   6 C    3.958 --    79 C    1.638    77 C    1.182   110 H    0.972
    79   6 C    3.961 --    78 C    1.638    81 C    1.190   111 H    0.973
    80   7 N    3.407 --    81 C    1.239    77 C    1.206    61 Ni   0.661
    81   6 C    3.901 --    82 C    1.262    80 N    1.239    79 C    1.190
    82   6 C    3.945 --    83 C    1.264    81 C    1.262   128 C    1.185
    83   6 C    3.902 --    82 C    1.264    87 N    1.237    84 C    1.191
    84   6 C    3.961 --    85 C    1.636    83 C    1.191   112 H    0.973
    85   6 C    3.958 --    84 C    1.636    86 C    1.183   113 H    0.973
    86   6 C    3.914 --    88 C    1.325    87 N    1.208    85 C    1.183
    87   7 N    3.406 --    83 C    1.237    86 C    1.208    61 Ni   0.661
    88   6 C    3.938 --    86 C    1.325    97 C    1.321    89 C    1.031
    89   6 C    3.986 --    90 C    1.383    96 C    1.381    88 C    1.031
    90   6 C    3.988 --    91 C    1.465    89 C    1.383   114 H    0.972
                            95 C    0.101
    91   6 C    3.993 --    90 C    1.465    92 C    1.379   115 H    0.971
    92   6 C    3.984 --    91 C    1.379    95 C    1.370    93 C    1.049
    93   6 C    3.864 --    94 O    1.809    92 C    1.049   116 H    0.942
    94   8 O    2.004 --    93 C    1.809
    95   6 C    3.988 --    96 C    1.470    92 C    1.370   117 H    0.968
                            90 C    0.101
    96   6 C    3.988 --    95 C    1.470    89 C    1.381   118 H    0.972
    97   6 C    3.919 --    88 C    1.321   101 N    1.222    98 C    1.176
    98   6 C    3.963 --    99 C    1.650    97 C    1.176   119 H    0.972
    99   6 C    3.959 --    98 C    1.650   100 C    1.175   120 H    0.975
   100   6 C    3.922 --    62 C    1.364   101 N    1.213    99 C    1.175
   101   7 N    3.402 --    97 C    1.222   100 C    1.213    61 Ni   0.663
   102   1 H    1.000 --    62 C    0.970
   103   1 H    0.997 --    64 C    0.975
   104   1 H    1.004 --    65 C    0.972
   105   1 H    1.003 --    70 C    0.972
   106   1 H    1.005 --    71 C    0.968
   107   1 H    1.010 --    73 C    0.942
   108   1 H    1.000 --    75 C    0.971
   109   1 H    1.003 --    76 C    0.972
   110   1 H    1.004 --    78 C    0.972
   111   1 H    1.001 --    79 C    0.973
   112   1 H    1.001 --    84 C    0.973
   113   1 H    1.003 --    85 C    0.973
   114   1 H    1.004 --    90 C    0.972
   115   1 H    1.000 --    91 C    0.971
   116   1 H    1.010 --    93 C    0.942
   117   1 H    1.005 --    95 C    0.968
   118   1 H    1.004 --    96 C    0.972
   119   1 H    1.004 --    98 C    0.972
   120   1 H    0.997 --    99 C    0.975
   121   6 C    3.879 --   122 C    2.446    22 C    1.185   124 C    0.187
   122   6 C    3.938 --   121 C    2.446   123 C    1.340
   123   6 C    3.895 --   124 C    2.341   122 C    1.340   126 C    0.183
   124   6 C    3.928 --   123 C    2.341   125 C    1.366   121 C    0.187
   125   6 C    3.928 --   126 C    2.341   124 C    1.366   128 C    0.187
   126   6 C    3.895 --   125 C    2.341   127 C    1.340   123 C    0.183
   127   6 C    3.938 --   128 C    2.446   126 C    1.340
   128   6 C    3.879 --   127 C    2.446    82 C    1.185   125 C    0.187
 ---------------------------------------------------------------------------

Topologies differ in total number of bonds
Writing topology from bond orders to xtbtopo.mol

 dipole moment from electron density (au)
     X       Y       Z   
  -0.0020   0.2791  -3.8808  total (Debye):    9.890

           -------------------------------------------------
          |                Geometry Summary                 |
           -------------------------------------------------

      molecular mass/u    :     1244.5556165
   center of mass at/Å    :       22.5752319      -0.0039763       0.0325382
  moments of inertia/u·Å² :        0.2694863E+05   0.1037094E+06   0.1297619E+06
rotational constants/cm⁻¹ :        0.6255468E-03   0.1625469E-03   0.1299120E-03

 * 122 selected distances

     #   Z          #   Z                                           value/Å
     2   6 C        3   6 C                                       1.3790335
     3   6 C        4   6 C                                       1.4311730
     4   6 C        5   6 C                                       1.3531394
     5   6 C        6   6 C                                       1.4339725
     3   6 C        7   7 N                                       1.3725536
     6   6 C        7   7 N                                       1.3722307
     6   6 C        8   6 C                                       1.3888374
     9   6 C       10   6 C                                       1.3976574
    10   6 C       11   6 C                                       1.3816931
    11   6 C       12   6 C                                       1.3988029
    13   6 C       14   8 O                                       1.2042450
    12   6 C       15   6 C                                       1.3968407
     9   6 C       16   6 C                                       1.3970819
    15   6 C       16   6 C                                       1.3837582
     8   6 C       17   6 C                                       1.3883202
    17   6 C       18   6 C                                       1.4318229
    18   6 C       19   6 C                                       1.3541805
    17   6 C       20   7 N                                       1.3767354
    19   6 C       21   6 C                                       1.4282876
    20   7 N       21   6 C                                       1.3675752
    21   6 C       22   6 C                                       1.3978130
    22   6 C       23   6 C                                       1.3975053
    23   6 C       24   6 C                                       1.4281193
    24   6 C       25   6 C                                       1.3545236
    25   6 C       26   6 C                                       1.4315873
    23   6 C       27   7 N                                       1.3681082
    26   6 C       27   7 N                                       1.3762923
    26   6 C       28   6 C                                       1.3890043
    29   6 C       30   6 C                                       1.3976841
    30   6 C       31   6 C                                       1.3834606
    31   6 C       32   6 C                                       1.3969348
    33   6 C       34   8 O                                       1.2042803
    32   6 C       35   6 C                                       1.3987972
    29   6 C       36   6 C                                       1.3980511
    35   6 C       36   6 C                                       1.3816324
    28   6 C       37   6 C                                       1.3891466
    37   6 C       38   6 C                                       1.4339934
    38   6 C       39   6 C                                       1.3533346
     2   6 C       40   6 C                                       1.3791581
    39   6 C       40   6 C                                       1.4309654
    37   6 C       41   7 N                                       1.3723199
    40   6 C       41   7 N                                       1.3724237
     2   6 C       42   1 H                                       1.0837185
     4   6 C       43   1 H                                       1.0782942
     5   6 C       44   1 H                                       1.0778078
    10   6 C       45   1 H                                       1.0841257
    11   6 C       46   1 H                                       1.0847132
    15   6 C       48   1 H                                       1.0851830
    16   6 C       49   1 H                                       1.0841787
    18   6 C       50   1 H                                       1.0776274
    19   6 C       51   1 H                                       1.0779282
    24   6 C       52   1 H                                       1.0779586
    25   6 C       53   1 H                                       1.0776353
    30   6 C       54   1 H                                       1.0842054
    31   6 C       55   1 H                                       1.0851835
    35   6 C       57   1 H                                       1.0847212
    36   6 C       58   1 H                                       1.0841264
    38   6 C       59   1 H                                       1.0778273
    39   6 C       60   1 H                                       1.0783066
    62   6 C       63   6 C                                       1.3790329
    63   6 C       64   6 C                                       1.4311779
    64   6 C       65   6 C                                       1.3531385
    65   6 C       66   6 C                                       1.4339712
    63   6 C       67   7 N                                       1.3725696
    66   6 C       67   7 N                                       1.3722225
    66   6 C       68   6 C                                       1.3888200
    69   6 C       70   6 C                                       1.3976379
    70   6 C       71   6 C                                       1.3816973
    71   6 C       72   6 C                                       1.3987944
    73   6 C       74   8 O                                       1.2042420
    72   6 C       75   6 C                                       1.3968363
    69   6 C       76   6 C                                       1.3970818
    75   6 C       76   6 C                                       1.3837458
    68   6 C       77   6 C                                       1.3882946
    77   6 C       78   6 C                                       1.4317998
    78   6 C       79   6 C                                       1.3541731
    77   6 C       80   7 N                                       1.3767358
    79   6 C       81   6 C                                       1.4283139
    80   7 N       81   6 C                                       1.3675716
    81   6 C       82   6 C                                       1.3978742
    82   6 C       83   6 C                                       1.3974311
    83   6 C       84   6 C                                       1.4281301
    84   6 C       85   6 C                                       1.3545136
    85   6 C       86   6 C                                       1.4316087
    83   6 C       87   7 N                                       1.3681435
    86   6 C       87   7 N                                       1.3762781
    86   6 C       88   6 C                                       1.3890231
    89   6 C       90   6 C                                       1.3976764
    90   6 C       91   6 C                                       1.3834737
    91   6 C       92   6 C                                       1.3969301
    93   6 C       94   8 O                                       1.2042876
    92   6 C       95   6 C                                       1.3988054
    89   6 C       96   6 C                                       1.3980531
    95   6 C       96   6 C                                       1.3816280
    88   6 C       97   6 C                                       1.3891256
    97   6 C       98   6 C                                       1.4340035 (max)
    98   6 C       99   6 C                                       1.3533368
    62   6 C      100   6 C                                       1.3791623
    99   6 C      100   6 C                                       1.4309760
    97   6 C      101   7 N                                       1.3723192
   100   6 C      101   7 N                                       1.3724077
    62   6 C      102   1 H                                       1.0837199
    64   6 C      103   1 H                                       1.0782930
    65   6 C      104   1 H                                       1.0778079
    70   6 C      105   1 H                                       1.0841238
    71   6 C      106   1 H                                       1.0847115
    75   6 C      108   1 H                                       1.0851769
    76   6 C      109   1 H                                       1.0841786
    78   6 C      110   1 H                                       1.0776217 (min)
    79   6 C      111   1 H                                       1.0779167
    84   6 C      112   1 H                                       1.0779632
    85   6 C      113   1 H                                       1.0776343
    90   6 C      114   1 H                                       1.0842126
    91   6 C      115   1 H                                       1.0851855
    95   6 C      117   1 H                                       1.0847221
    96   6 C      118   1 H                                       1.0841273
    98   6 C      119   1 H                                       1.0778294
    99   6 C      120   1 H                                       1.0783112
   121   6 C      122   6 C                                       1.2241503
   123   6 C      124   6 C                                       1.2303632
   125   6 C      126   6 C                                       1.2303061
   127   6 C      128   6 C                                       1.2240612

 * 4 distinct bonds (by element types)

   Z      Z             #   av. dist./Å        max./Å        min./Å
   1 H    6 C          34     1.0813846     1.0851855     1.0776217
   6 C    6 C          68     1.3864921     1.4340035     1.2240612
   6 C    7 N          16     1.3722804     1.3767358     1.3675716
   6 C    8 O           4     1.2042637     1.2042876     1.2042420


optimized geometry written to: xtbopt.xyz


           -------------------------------------------------
          | TOTAL ENERGY             -233.474867358242 Eh   |
          | GRADIENT NORM               0.000655861117 Eh/α |
          | HOMO-LUMO GAP               1.227291471655 eV   |
           -------------------------------------------------

------------------------------------------------------------------------
 * finished run on 2022/07/30 at 04:33:13.962     
------------------------------------------------------------------------
 total:
 * wall-time:     0 d,  0 h,  0 min, 30.901 sec
 *  cpu-time:     0 d,  0 h,  0 min, 30.735 sec
 * ratio c/w:     0.995 speedup
 SCF:
 * wall-time:     0 d,  0 h,  0 min,  2.504 sec
 *  cpu-time:     0 d,  0 h,  0 min,  2.490 sec
 * ratio c/w:     0.994 speedup
 ANC optimizer:
 * wall-time:     0 d,  0 h,  0 min, 28.264 sec
 *  cpu-time:     0 d,  0 h,  0 min, 28.118 sec
 * ratio c/w:     0.995 speedup

