      -----------------------------------------------------------      
     |                   =====================                   |     
     |                           x T B                           |     
     |                   =====================                   |     
     |                         S. Grimme                         |     
     |          Mulliken Center for Theoretical Chemistry        |     
     |                    University of Bonn                     |     
      -----------------------------------------------------------      

   * xtb version 6.5.1 (b24c23e) compiled by 'conda@728c89f4b128' on 2022-07-12

   xtb is free software: you can redistribute it and/or modify it under
   the terms of the GNU Lesser General Public License as published by
   the Free Software Foundation, either version 3 of the License, or
   (at your option) any later version.
   
   xtb is distributed in the hope that it will be useful,
   but WITHOUT ANY WARRANTY; without even the implied warranty of
   MERCHANTABILITY or FITNESS FOR A PARTICULAR PURPOSE.  See the
   GNU Lesser General Public License for more details.
   
   Cite this work as:
   * C. Bannwarth, E. Caldeweyher, S. Ehlert, A. Hansen, P. Pracht,
     J. Seibert, S. Spicher, S. Grimme, WIREs Comput. Mol. Sci., 2020, 11,
     e01493. DOI: 10.1002/wcms.1493
   
   for GFN2-xTB:
   * C. Bannwarth, S. Ehlert and S. Grimme., J. Chem. Theory Comput., 2019,
     15, 1652-1671. DOI: 10.1021/acs.jctc.8b01176
   for GFN1-xTB:
   * S. Grimme, C. Bannwarth, P. Shushkov, J. Chem. Theory Comput., 2017,
     13, 1989-2009. DOI: 10.1021/acs.jctc.7b00118
   for GFN0-xTB:
   * P. Pracht, E. Caldeweyher, S. Ehlert, S. Grimme, ChemRxiv, 2019, preprint.
     DOI: 10.26434/chemrxiv.8326202.v1
   for GFN-FF:
   * S. Spicher and S. Grimme, Angew. Chem. Int. Ed., 2020, 59, 15665-15673.
     DOI: 10.1002/anie.202004239
   
   for ALPB and GBSA implicit solvation:
   * S. Ehlert, M. Stahn, S. Spicher, S. Grimme, J. Chem. Theory Comput.,
     2021, 17, 4250-4261. DOI: 10.1021/acs.jctc.1c00471
   
   for DFT-D4:
   * E. Caldeweyher, C. Bannwarth and S. Grimme, J. Chem. Phys., 2017,
     147, 034112. DOI: 10.1063/1.4993215
   * E. Caldeweyher, S. Ehlert, A. Hansen, H. Neugebauer, S. Spicher,
     C. Bannwarth and S. Grimme, J. Chem. Phys., 2019, 150, 154122.
     DOI: 10.1063/1.5090222
   * E. Caldeweyher, J.-M. Mewes, S. Ehlert and S. Grimme, Phys. Chem. Chem. Phys.
     2020, 22, 8499-8512. DOI: 10.1039/D0CP00502A
   
   for sTDA-xTB:
   * S. Grimme and C. Bannwarth, J. Chem. Phys., 2016, 145, 054103.
     DOI: 10.1063/1.4959605
   
   in the mass-spec context:
   * V. Asgeirsson, C. Bauer and S. Grimme, Chem. Sci., 2017, 8, 4879.
     DOI: 10.1039/c7sc00601b
   * J. Koopman and S. Grimme, ACS Omega 2019, 4, 12, 15120-15133.
     DOI: 10.1021/acsomega.9b02011
   
   for metadynamics refer to:
   * S. Grimme, J. Chem. Theory Comput., 2019, 155, 2847-2862
     DOI: 10.1021/acs.jctc.9b00143
   
   for SPH calculations refer to:
   * S. Spicher and S. Grimme, J. Chem. Theory Comput., 2021, 17, 1701-1714
     DOI: 10.1021/acs.jctc.0c01306
   
   with help from (in alphabetical order)
   P. Atkinson, C. Bannwarth, F. Bohle, G. Brandenburg, E. Caldeweyher
   M. Checinski, S. Dohm, S. Ehlert, S. Ehrlich, I. Gerasimov, C. Hölzer
   A. Katbashev, J. Koopman, C. Lavigne, S. Lehtola, F. März, M. Müller,
   F. Musil, H. Neugebauer, J. Pisarek, C. Plett, P. Pracht, F. Pultar,
   J. Seibert, P. Shushkov, S. Spicher, M. Stahn, M. Steiner, T. Strunk,
   J. Stückrath, T. Rose, and J. Unsleber
   
 * started run on 2022/07/30 at 15:53:54.230     

           -------------------------------------------------
          |                Calculation Setup                |
           -------------------------------------------------

          program call               : xtb Zn_BSA_C4_3.xyz --gfn 1 --opt -T 48
          hostname                   : cx3-15-13.cx3.hpc.ic.ac.uk
          coordinate file            : Zn_BSA_C4_3.xyz
          omp threads                :                     1

   ID    Z sym.   atoms
    1   30 Zn     1, 65, 137
    2    6 C      2-6, 8-12, 17-21, 23-28, 30-34, 39-44, 66-70, 72-76, 81-85,
                  87-92, 94-98, 103-108, 129-136, 138-142, 144-148, 153-157,
                  159-164, 166-170, 175-180
    3    7 N      7, 22, 29, 45, 71, 86, 93, 109, 143, 158, 165, 181
    4   16 S      13, 35, 77, 99, 149, 171
    5    8 O      14-16, 36-38, 78-80, 100-102, 150-152, 172-174
    6    1 H      46-64, 110-128, 182-199

molecular fragmentation (1/2 indicates fragments):
111111111111111111111111111111111111111111111111111111111111111122222222
222222222222222222222222222222222222222222222222222222222222222222222222
2222222222222222222222222222222222222222222222222222222
# atoms in fragment 1/2:    64   135
 fragment masses (1/2) :      685.03     1465.13
CMA distance (Bohr)    :  39.799
constraining FC (au)   :  0.0500
########################################################################
[WARNING] Please study the warnings concerning your input carefully
-1- prog_main_parseArguments: Unknown option '-T' provided
########################################################################

           -------------------------------------------------
          |                 G F N 1 - x T B                 |
           -------------------------------------------------

        Reference                      10.1021/acs.jctc.7b00118
      * Hamiltonian:
        H0-scaling (s, p, d)           1.850000    2.250000    2.000000
        zeta-weighting                 0.000000
      * Dispersion:
        s8                             2.400000
        a1                             0.630000
        a2                             5.000000
        s9                             0.000000
      * Repulsion:
        kExp                           1.500000
        rExp                           1.000000
      * Coulomb:
        alpha                          2.000000
        third order                    atomic
        anisotropic                    false
      * Halogen bond correction:
        rad-scale                      1.300000
        damping                        0.440000


          ...................................................
          :                      SETUP                      :
          :.................................................:
          :  # basis functions                 720          :
          :  # atomic orbitals                 714          :
          :  # shells                          404          :
          :  # electrons                       682          :
          :  # halogen bonds                     0          :
          :  max. iterations                   250          :
          :  Hamiltonian                  GFN1-xTB          :
          :  restarted?                      false          :
          :  GBSA solvation                  false          :
          :  PC potential                    false          :
          :  electronic temp.          300.0000000     K    :
          :  accuracy                    1.0000000          :
          :  -> integral cutoff          0.2500000E+02      :
          :  -> integral neglect         0.1000000E-07      :
          :  -> SCF convergence          0.1000000E-05 Eh   :
          :  -> wf. convergence          0.2000000E-04 e    :
          :  Broyden damping             0.4000000          :
          ...................................................

 iter      E             dE          RMSdq      gap      omega  full diag
   1   -400.2109556 -0.400211E+03  0.101E+01    0.69       0.0  T
   2   -400.1224222  0.885335E-01  0.627E+00    0.45       1.0  T
   3   -365.6741232  0.344483E+02  0.679E+00    0.05       1.0  T
   4   -369.6123607 -0.393824E+01  0.406E+00    0.02       1.0  T
   5   -396.9358871 -0.273235E+02  0.190E+00    0.06       1.0  T
   6   -400.1531661 -0.321728E+01  0.108E+00    0.04       1.0  T
   7   -400.7481537 -0.594988E+00  0.774E-01    0.84       1.0  T
   8   -400.8695826 -0.121429E+00  0.421E-01    0.68       1.0  T
   9   -400.9070104 -0.374278E-01  0.306E-01    0.71       1.0  T
  10   -400.9239471 -0.169367E-01  0.177E-01    0.75       1.0  T
  11   -400.9317221 -0.777497E-02  0.922E-02    0.68       1.0  T
  12   -400.9351615 -0.343940E-02  0.813E-02    0.72       1.0  T
  13   -400.9363313 -0.116980E-02  0.464E-02    0.70       1.0  T
  14   -400.9363712 -0.399415E-04  0.493E-02    0.69       1.0  T
  15   -400.9366065 -0.235275E-03  0.312E-02    0.70       1.0  T
  16   -400.9367564 -0.149866E-03  0.164E-02    0.70       1.0  T
  17   -400.9368436 -0.871922E-04  0.612E-03    0.70       1.2  T
  18   -400.9368590 -0.154677E-04  0.321E-03    0.70       2.2  T
  19   -400.9368651 -0.608633E-05  0.138E-03    0.70       5.1  T
  20   -400.9368663 -0.112682E-05  0.731E-04    0.70       9.7  T
  21   -400.9368666 -0.303224E-06  0.438E-04    0.70      16.2  T
  22   -400.9368666 -0.690663E-07  0.314E-04    0.70      22.6  T
  23   -400.9368667 -0.241578E-07  0.240E-04    0.70      29.5  T
  24   -400.9368667 -0.113035E-07  0.143E-04    0.70      49.6  T
  25   -400.9368667 -0.548391E-08  0.609E-05    0.70     116.4  T

   *** convergence criteria satisfied after 25 iterations ***

         #    Occupation            Energy/Eh            Energy/eV
      -------------------------------------------------------------
         1        2.0000           -1.0298023             -28.0223
       ...           ...                  ...                  ...
       335        2.0000           -0.4190340             -11.4025
       336        2.0000           -0.4156876             -11.3114
       337        2.0000           -0.4133874             -11.2488
       338        2.0000           -0.4118634             -11.2074
       339        2.0000           -0.4100072             -11.1569
       340        2.0000           -0.4074318             -11.0868
       341        2.0000           -0.3868650             -10.5271 (HOMO)
       342        0.0000           -0.3612033              -9.8288 (LUMO)
       343        0.0000           -0.3583232              -9.7505
       344                         -0.3574906              -9.7278
       345                         -0.3531177              -9.6088
       346                         -0.3523890              -9.5890
       ...                                ...                  ...
       714                          1.5510658              42.2066
      -------------------------------------------------------------
                  HL-Gap            0.0256617 Eh            0.6983 eV
             Fermi-level           -0.3740657 Eh          -10.1788 eV

 SCC (total)                   0 d,  0 h,  0 min,  4.420 sec
 SCC setup                      ...        0 min,  0.011 sec (  0.249%)
 Dispersion                     ...        0 min,  0.008 sec (  0.172%)
 classical contributions        ...        0 min,  0.003 sec (  0.057%)
 integral evaluation            ...        0 min,  0.210 sec (  4.752%)
 iterations                     ...        0 min,  3.661 sec ( 82.814%)
 molecular gradient             ...        0 min,  0.489 sec ( 11.072%)
 printout                       ...        0 min,  0.039 sec (  0.884%)

         :::::::::::::::::::::::::::::::::::::::::::::::::::::
         ::                     SUMMARY                     ::
         :::::::::::::::::::::::::::::::::::::::::::::::::::::
         :: total energy            -395.884108874131 Eh    ::
         :: gradient norm              0.902265325283 Eh/a0 ::
         :: HOMO-LUMO gap              0.698291222434 eV    ::
         ::.................................................::
         :: SCC energy              -400.936866672242 Eh    ::
         :: -> electrostatic           0.865682177034 Eh    ::
         :: repulsion energy           5.233032801420 Eh    ::
         :: dispersion energy         -0.180275003310 Eh    ::
         :: halogen bond corr.         0.000000000000 Eh    ::
         :: add. restraining           0.000000000000 Eh    ::
         :: total charge              -0.000000000067 e     ::
         :::::::::::::::::::::::::::::::::::::::::::::::::::::

      ----------------------------------------------------------- 
     |                   =====================                   |
     |                        A N C O P T                        |
     |                   =====================                   |
     |               Approximate Normal Coordinate               |
     |                Rational Function Optimizer                |
      ----------------------------------------------------------- 

          ...................................................
          :                      SETUP                      :
          :.................................................:
          :   optimization level            normal          :
          :   max. optcycles                   597          :
          :   ANC micro-cycles                  20          :
          :   degrees of freedom               591          :
          :.................................................:
          :   RF solver                   davidson          :
          :   write xtbopt.log                true          :
          :   linear?                        false          :
          :   energy convergence         0.5000000E-05 Eh   :
          :   grad. convergence          0.1000000E-02 Eh/α :
          :   maximium RF displ.         1.0000000          :
          :   Hlow (freq-cutoff)         0.1000000E-01      :
          :   Hmax (freq-cutoff)         5.0000000          :
          :   S6 in model hess.         20.0000000          :
          ...................................................

generating ANC from model Hessian ...
Using Lindh-Hessian (1995)
 Shifting diagonal of input Hessian by    1.0031482782109136E-002
 Lowest  eigenvalues of input Hessian
    0.010000    0.010008    0.010012    0.010017    0.010020    0.010023
    0.010024    0.010028    0.000000    0.000000    0.000000    0.000000
    0.000000    0.000000    0.010041    0.010047    0.010092    0.010096
 Highest eigenvalues
    2.692028    2.701695    2.702254    2.703953    2.703954    3.024328


........................................................................
.............................. CYCLE    1 ..............................
........................................................................
   1   -400.9368667 -0.400937E+03  0.270E-05    0.70       0.0  T
   2   -400.9368667  0.707246E-09  0.562E-05    0.70     126.2  T
   3   -400.9368667 -0.984357E-09  0.111E-05    0.70     636.8  T
     SCC iter.                  ...        0 min,  0.431 sec
     gradient                   ...        0 min,  0.490 sec
 * total energy  :  -395.8841089 Eh     change       -0.1600597E-08 Eh
   gradient norm :     0.9022660 Eh/α   predicted     0.0000000E+00 (-100.00%)
   displ. norm   :     0.5192638 α      lambda       -0.4015494E+00
   maximum displ.:     0.1376855 α      in ANC's #446, #584, #591, ...

........................................................................
.............................. CYCLE    2 ..............................
........................................................................
   1   -401.1567276 -0.401157E+03  0.179E-01    0.98       0.0  T
   2   -401.1587692 -0.204165E-02  0.146E-01    0.97       1.0  T
   3   -401.1642091 -0.543988E-02  0.670E-02    1.00       1.0  T
   4   -401.1649568 -0.747729E-03  0.364E-02    0.99       1.0  T
   5   -401.1650197 -0.628405E-04  0.140E-02    0.99       1.0  T
   6   -401.1650679 -0.482215E-04  0.735E-03    0.99       1.0  T
   7   -401.1650990 -0.311033E-04  0.198E-03    0.99       3.6  T
   8   -401.1651003 -0.126285E-05  0.990E-04    0.99       7.2  T
   9   -401.1651005 -0.251525E-06  0.377E-04    0.99      18.8  T
  10   -401.1651006 -0.398307E-07  0.117E-04    0.99      60.5  T
  11   -401.1651006 -0.466520E-08  0.537E-05    0.99     131.9  T
     SCC iter.                  ...        0 min,  1.556 sec
     gradient                   ...        0 min,  0.489 sec
 * total energy  :  -396.2038829 Eh     change       -0.3197740E+00 Eh
   gradient norm :     0.5279390 Eh/α   predicted    -0.2549521E+00 ( -20.27%)
   displ. norm   :     0.5940088 α      lambda       -0.2766397E+00
   maximum displ.:     0.1473920 α      in ANC's #446, #584, #143, ...

........................................................................
.............................. CYCLE    3 ..............................
........................................................................
   1   -401.4711015 -0.401471E+03  0.204E-01    1.18       0.0  T
   2   -401.4775853 -0.648375E-02  0.113E-01    1.20       1.0  T
   3   -401.4798970 -0.231172E-02  0.657E-02    1.22       1.0  T
   4   -401.4804288 -0.531831E-03  0.408E-02    1.21       1.0  T
   5   -401.4808680 -0.439167E-03  0.176E-02    1.22       1.0  T
   6   -401.4810238 -0.155810E-03  0.449E-03    1.21       1.6  T
   7   -401.4810317 -0.792259E-05  0.193E-03    1.21       3.7  T
   8   -401.4810329 -0.119029E-05  0.837E-04    1.21       8.5  T
   9   -401.4810333 -0.403210E-06  0.399E-04    1.21      17.8  T
  10   -401.4810334 -0.723360E-07  0.963E-05    1.21      73.6  T
  11   -401.4810334 -0.186679E-08  0.586E-05    1.21     121.0  T
     SCC iter.                  ...        0 min,  1.545 sec
     gradient                   ...        0 min,  0.482 sec
 * total energy  :  -396.3624340 Eh     change       -0.1585511E+00 Eh
   gradient norm :     0.2803339 Eh/α   predicted    -0.1871255E+00 (  18.02%)
   displ. norm   :     0.6340246 α      lambda       -0.1117417E+00
   maximum displ.:     0.1896041 α      in ANC's #117, #143, #212, ...

........................................................................
.............................. CYCLE    4 ..............................
........................................................................
   1   -401.5183062 -0.401518E+03  0.982E-02    1.22       0.0  T
   2   -401.5194447 -0.113846E-02  0.668E-02    1.22       1.0  T
   3   -401.5201469 -0.702280E-03  0.311E-02    1.23       1.0  T
   4   -401.5201623 -0.153162E-04  0.257E-02    1.22       1.0  T
   5   -401.5203504 -0.188103E-03  0.847E-03    1.23       1.0  T
   6   -401.5203931 -0.427392E-04  0.221E-03    1.22       3.2  T
   7   -401.5203950 -0.186176E-05  0.121E-03    1.22       5.9  T
   8   -401.5203956 -0.619595E-06  0.378E-04    1.22      18.7  T
   9   -401.5203956 -0.720365E-07  0.161E-04    1.22      44.0  T
  10   -401.5203957 -0.105859E-07  0.452E-05    1.22     156.7  T
     SCC iter.                  ...        0 min,  1.402 sec
     gradient                   ...        0 min,  0.490 sec
 * total energy  :  -396.4434824 Eh     change       -0.8104848E-01 Eh
   gradient norm :     0.1224941 Eh/α   predicted    -0.7833023E-01 (  -3.35%)
   displ. norm   :     0.7928185 α      lambda       -0.7597283E-01
   maximum displ.:     0.2766493 α      in ANC's #117, #143, #58, ...

........................................................................
.............................. CYCLE    5 ..............................
........................................................................
   1   -401.5414336 -0.401541E+03  0.775E-02    1.24       0.0  T
   2   -401.5418881 -0.454487E-03  0.652E-02    1.24       1.0  T
   3   -401.5425711 -0.682941E-03  0.255E-02    1.24       1.0  T
   4   -401.5424177  0.153319E-03  0.256E-02    1.24       1.0  T
   5   -401.5426467 -0.229003E-03  0.632E-03    1.24       1.1  T
   6   -401.5426679 -0.211474E-04  0.181E-03    1.23       3.9  T
   7   -401.5426693 -0.141907E-05  0.937E-04    1.23       7.6  T
   8   -401.5426698 -0.440161E-06  0.300E-04    1.23      23.6  T
   9   -401.5426698 -0.375974E-07  0.133E-04    1.23      53.3  T
  10   -401.5426698 -0.639841E-08  0.423E-05    1.23     167.5  T
     SCC iter.                  ...        0 min,  1.418 sec
     gradient                   ...        0 min,  0.488 sec
 * total energy  :  -396.5105131 Eh     change       -0.6703066E-01 Eh
   gradient norm :     0.1049480 Eh/α   predicted    -0.6186323E-01 (  -7.71%)
   displ. norm   :     0.8586441 α      lambda       -0.6514542E-01
   maximum displ.:     0.3179099 α      in ANC's #117, #143, #58, ...

........................................................................
.............................. CYCLE    6 ..............................
........................................................................
   1   -401.5244914 -0.401524E+03  0.691E-02    1.20       0.0  T
   2   -401.5246990 -0.207641E-03  0.721E-02    1.20       1.0  T
   3   -401.5254390 -0.739977E-03  0.331E-02    1.20       1.0  T
   4   -401.5250466  0.392352E-03  0.295E-02    1.19       1.0  T
   5   -401.5254367 -0.390082E-03  0.625E-03    1.19       1.1  T
   6   -401.5254567 -0.199688E-04  0.150E-03    1.19       4.7  T
   7   -401.5254578 -0.107388E-05  0.551E-04    1.19      12.9  T
   8   -401.5254579 -0.157971E-06  0.264E-04    1.19      26.9  T
   9   -401.5254580 -0.382159E-07  0.835E-05    1.19      84.9  T
  10   -401.5254580 -0.165136E-08  0.356E-05    1.19     199.4  T
     SCC iter.                  ...        0 min,  1.418 sec
     gradient                   ...        0 min,  0.499 sec
 * total energy  :  -396.5610098 Eh     change       -0.5049673E-01 Eh
   gradient norm :     0.0735309 Eh/α   predicted    -0.5658788E-01 (  12.06%)
   displ. norm   :     0.7516213 α      lambda       -0.3296439E-01
   maximum displ.:     0.2818506 α      in ANC's #58, #25, #56, ...

........................................................................
.............................. CYCLE    7 ..............................
........................................................................
   1   -401.5463483 -0.401546E+03  0.331E-02    1.16       0.0  T
   2   -401.5463809 -0.326892E-04  0.330E-02    1.17       1.0  T
   3   -401.5466271 -0.246181E-03  0.127E-02    1.17       1.0  T
   4   -401.5465414  0.857795E-04  0.141E-02    1.17       1.0  T
   5   -401.5466359 -0.945242E-04  0.298E-03    1.17       2.4  T
   6   -401.5466382 -0.230636E-05  0.754E-04    1.17       9.4  T
   7   -401.5466385 -0.270023E-06  0.306E-04    1.17      23.1  T
   8   -401.5466385 -0.586255E-07  0.150E-04    1.17      47.2  T
   9   -401.5466385 -0.144188E-07  0.379E-05    1.17     187.0  T
     SCC iter.                  ...        0 min,  1.279 sec
     gradient                   ...        0 min,  0.493 sec
 * total energy  :  -396.5866343 Eh     change       -0.2562448E-01 Eh
   gradient norm :     0.0610727 Eh/α   predicted    -0.2579360E-01 (   0.66%)
   displ. norm   :     0.8090400 α      lambda       -0.2899244E-01
   maximum displ.:     0.2954682 α      in ANC's #25, #56, #58, ...

........................................................................
.............................. CYCLE    8 ..............................
........................................................................
   1   -401.5853636 -0.401585E+03  0.244E-02    1.17       0.0  T
   2   -401.5854368 -0.731698E-04  0.174E-02    1.18       1.0  T
   3   -401.5855190 -0.822575E-04  0.831E-03    1.18       1.0  T
   4   -401.5855206 -0.160515E-05  0.710E-03    1.18       1.0  T
   5   -401.5855428 -0.221834E-04  0.236E-03    1.18       3.0  T
   6   -401.5855441 -0.130683E-05  0.743E-04    1.18       9.5  T
   7   -401.5855444 -0.257163E-06  0.299E-04    1.18      23.7  T
   8   -401.5855444 -0.458938E-07  0.158E-04    1.18      44.9  T
   9   -401.5855445 -0.167096E-07  0.465E-05    1.18     152.5  T
     SCC iter.                  ...        0 min,  1.279 sec
     gradient                   ...        0 min,  0.490 sec
 * total energy  :  -396.6048675 Eh     change       -0.1823321E-01 Eh
   gradient norm :     0.0568562 Eh/α   predicted    -0.2398466E-01 (  31.54%)
   displ. norm   :     0.8128948 α      lambda       -0.2679435E-01
   maximum displ.:     0.3327690 α      in ANC's #58, #25, #56, ...

........................................................................
.............................. CYCLE    9 ..............................
........................................................................
   1   -401.6385194 -0.401639E+03  0.267E-02    1.19       0.0  T
   2   -401.6386172 -0.977846E-04  0.206E-02    1.19       1.0  T
   3   -401.6386822 -0.650419E-04  0.940E-03    1.19       1.0  T
   4   -401.6386473  0.349287E-04  0.818E-03    1.19       1.0  T
   5   -401.6386858 -0.384756E-04  0.274E-03    1.19       2.6  T
   6   -401.6386886 -0.288996E-05  0.761E-04    1.19       9.3  T
   7   -401.6386890 -0.313046E-06  0.267E-04    1.19      26.5  T
   8   -401.6386890 -0.342013E-07  0.150E-04    1.19      47.3  T
   9   -401.6386890 -0.147711E-07  0.422E-05    1.19     168.1  T
     SCC iter.                  ...        0 min,  1.280 sec
     gradient                   ...        0 min,  0.489 sec
 * total energy  :  -396.6172541 Eh     change       -0.1238653E-01 Eh
   gradient norm :     0.0960843 Eh/α   predicted    -0.2224999E-01 (  79.63%)
   displ. norm   :     0.6359327 α      lambda       -0.2168117E-01
   maximum displ.:     0.3176815 α      in ANC's #25, #58, #56, ...

........................................................................
.............................. CYCLE   10 ..............................
........................................................................
   1   -401.6716471 -0.401672E+03  0.268E-02    1.19       0.0  T
   2   -401.6716953 -0.482284E-04  0.237E-02    1.19       1.0  T
   3   -401.6717614 -0.660394E-04  0.104E-02    1.19       1.0  T
   4   -401.6717196  0.417280E-04  0.909E-03    1.19       1.0  T
   5   -401.6717637 -0.440302E-04  0.170E-03    1.19       4.2  T
   6   -401.6717652 -0.154383E-05  0.386E-04    1.19      18.3  T
   7   -401.6717653 -0.706228E-07  0.202E-04    1.19      35.1  T
   8   -401.6717653 -0.258135E-07  0.593E-05    1.19     119.6  T
   9   -401.6717653 -0.156712E-08  0.262E-05    1.19     270.9  T
     SCC iter.                  ...        0 min,  1.278 sec
     gradient                   ...        0 min,  0.490 sec
 * total energy  :  -396.6325692 Eh     change       -0.1531512E-01 Eh
   gradient norm :     0.0498433 Eh/α   predicted    -0.1522463E-01 (  -0.59%)
   displ. norm   :     0.7736709 α      lambda       -0.1563487E-01
   maximum displ.:     0.4012583 α      in ANC's #25, #56, #58, ...

........................................................................
.............................. CYCLE   11 ..............................
........................................................................
   1   -401.7135071 -0.401714E+03  0.195E-02    1.18       0.0  T
   2   -401.7135372 -0.301869E-04  0.152E-02    1.18       1.0  T
   3   -401.7135754 -0.381206E-04  0.686E-03    1.18       1.0  T
   4   -401.7135614  0.139820E-04  0.609E-03    1.18       1.2  T
   5   -401.7135809 -0.195170E-04  0.127E-03    1.18       5.6  T
   6   -401.7135817 -0.790134E-06  0.371E-04    1.18      19.1  T
   7   -401.7135818 -0.810708E-07  0.155E-04    1.18      45.6  T
   8   -401.7135818 -0.160342E-07  0.487E-05    1.18     145.6  T
     SCC iter.                  ...        0 min,  1.138 sec
     gradient                   ...        0 min,  0.489 sec
 * total energy  :  -396.6433635 Eh     change       -0.1079429E-01 Eh
   gradient norm :     0.0464987 Eh/α   predicted    -0.1249670E-01 (  15.77%)
   displ. norm   :     0.8061259 α      lambda       -0.1675496E-01
   maximum displ.:     0.4183286 α      in ANC's #25, #58, #28, ...

........................................................................
.............................. CYCLE   12 ..............................
........................................................................
   1   -401.7598586 -0.401760E+03  0.159E-02    1.18       0.0  T
   2   -401.7598818 -0.232603E-04  0.121E-02    1.18       1.0  T
   3   -401.7599097 -0.278647E-04  0.540E-03    1.18       1.3  T
   4   -401.7599038  0.589913E-05  0.453E-03    1.18       1.6  T
   5   -401.7599142 -0.103702E-04  0.156E-03    1.18       4.5  T
   6   -401.7599151 -0.889700E-06  0.574E-04    1.18      12.4  T
   7   -401.7599153 -0.228657E-06  0.196E-04    1.18      36.1  T
   8   -401.7599153 -0.260173E-07  0.685E-05    1.18     103.4  T
     SCC iter.                  ...        0 min,  1.136 sec
     gradient                   ...        0 min,  0.491 sec
 * total energy  :  -396.6539221 Eh     change       -0.1055867E-01 Eh
   gradient norm :     0.0570975 Eh/α   predicted    -0.1382149E-01 (  30.90%)
   displ. norm   :     0.7272195 α      lambda       -0.1368585E-01
   maximum displ.:     0.4143324 α      in ANC's #25, #58, #28, ...

........................................................................
.............................. CYCLE   13 ..............................
........................................................................
   1   -401.7919627 -0.401792E+03  0.195E-02    1.20       0.0  T
   2   -401.7920040 -0.412199E-04  0.185E-02    1.20       1.0  T
   3   -401.7920491 -0.451473E-04  0.806E-03    1.20       1.0  T
   4   -401.7920279  0.211737E-04  0.683E-03    1.20       1.0  T
   5   -401.7920498 -0.218552E-04  0.157E-03    1.20       4.5  T
   6   -401.7920507 -0.960121E-06  0.599E-04    1.20      11.8  T
   7   -401.7920510 -0.215023E-06  0.199E-04    1.20      35.6  T
   8   -401.7920510 -0.237917E-07  0.973E-05    1.20      72.9  T
     SCC iter.                  ...        0 min,  1.137 sec
     gradient                   ...        0 min,  0.490 sec
 * total energy  :  -396.6632449 Eh     change       -0.9322764E-02 Eh
   gradient norm :     0.0432816 Eh/α   predicted    -0.1046180E-01 (  12.22%)
   displ. norm   :     0.7827586 α      lambda       -0.1090923E-01
   maximum displ.:     0.5113700 α      in ANC's #25, #28, #58, ...

........................................................................
.............................. CYCLE   14 ..............................
........................................................................
   1   -401.8224455 -0.401822E+03  0.168E-02    1.19       0.0  T
   2   -401.8224599 -0.144740E-04  0.159E-02    1.19       1.0  T
   3   -401.8225056 -0.457031E-04  0.645E-03    1.19       1.1  T
   4   -401.8224861  0.195723E-04  0.663E-03    1.19       1.1  T
   5   -401.8225074 -0.213826E-04  0.124E-03    1.19       5.7  T
   6   -401.8225079 -0.482280E-06  0.460E-04    1.19      15.4  T
   7   -401.8225081 -0.157525E-06  0.165E-04    1.19      43.0  T
   8   -401.8225081 -0.186052E-07  0.491E-05    1.19     144.5  T
     SCC iter.                  ...        0 min,  1.127 sec
     gradient                   ...        0 min,  0.486 sec
 * total energy  :  -396.6720350 Eh     change       -0.8790073E-02 Eh
   gradient norm :     0.0359393 Eh/α   predicted    -0.8796722E-02 (   0.08%)
   displ. norm   :     0.8262536 α      lambda       -0.9368276E-02
   maximum displ.:     0.5527024 α      in ANC's #25, #28, #56, ...

........................................................................
.............................. CYCLE   15 ..............................
........................................................................
   1   -401.8539448 -0.401854E+03  0.113E-02    1.18       0.0  T
   2   -401.8539575 -0.127134E-04  0.722E-03    1.19       1.0  T
   3   -401.8539629 -0.543400E-05  0.391E-03    1.19       1.8  T
   4   -401.8539613  0.164846E-05  0.322E-03    1.19       2.2  T
   5   -401.8539665 -0.522604E-05  0.917E-04    1.19       7.7  T
   6   -401.8539667 -0.168977E-06  0.288E-04    1.19      24.6  T
   7   -401.8539667 -0.397806E-07  0.146E-04    1.19      48.6  T
   8   -401.8539667 -0.140464E-07  0.395E-05    1.19     179.4  T
     SCC iter.                  ...        0 min,  1.117 sec
     gradient                   ...        0 min,  0.493 sec
 * total energy  :  -396.6792685 Eh     change       -0.7233519E-02 Eh
   gradient norm :     0.0244168 Eh/α   predicted    -0.7881973E-02 (   8.96%)
   displ. norm   :     0.8347380 α      lambda       -0.9555310E-02
   maximum displ.:     0.5724189 α      in ANC's #25, #28, #36, ...

........................................................................
.............................. CYCLE   16 ..............................
........................................................................
   1   -401.8810065 -0.401881E+03  0.140E-02    1.19       0.0  T
   2   -401.8810237 -0.171875E-04  0.118E-02    1.19       1.0  T
   3   -401.8810512 -0.275249E-04  0.488E-03    1.19       1.5  T
   4   -401.8810424  0.877070E-05  0.486E-03    1.19       1.5  T
   5   -401.8810537 -0.112258E-04  0.110E-03    1.19       6.4  T
   6   -401.8810539 -0.274642E-06  0.438E-04    1.19      16.2  T
   7   -401.8810541 -0.131685E-06  0.150E-04    1.19      47.1  T
   8   -401.8810541 -0.134826E-07  0.483E-05    1.19     146.9  T
     SCC iter.                  ...        0 min,  1.139 sec
     gradient                   ...        0 min,  0.495 sec
 * total energy  :  -396.6852445 Eh     change       -0.5976046E-02 Eh
   gradient norm :     0.0424159 Eh/α   predicted    -0.8106661E-02 (  35.65%)
   displ. norm   :     0.7274912 α      lambda       -0.8560996E-02
   maximum displ.:     0.5254055 α      in ANC's #25, #28, #34, ...

........................................................................
.............................. CYCLE   17 ..............................
........................................................................
   1   -401.9023068 -0.401902E+03  0.143E-02    1.19       0.0  T
   2   -401.9023301 -0.232164E-04  0.133E-02    1.19       1.0  T
   3   -401.9023558 -0.257847E-04  0.565E-03    1.19       1.3  T
   4   -401.9023436  0.122662E-04  0.527E-03    1.19       1.3  T
   5   -401.9023565 -0.129186E-04  0.123E-03    1.19       5.8  T
   6   -401.9023570 -0.467971E-06  0.404E-04    1.19      17.5  T
   7   -401.9023570 -0.831520E-07  0.145E-04    1.19      48.8  T
   8   -401.9023571 -0.141035E-07  0.624E-05    1.19     113.5  T
     SCC iter.                  ...        0 min,  1.138 sec
     gradient                   ...        0 min,  0.494 sec
 * total energy  :  -396.6916233 Eh     change       -0.6378725E-02 Eh
   gradient norm :     0.0275417 Eh/α   predicted    -0.6545923E-02 (   2.62%)
   displ. norm   :     0.7958013 α      lambda       -0.7081566E-02
   maximum displ.:     0.5821096 α      in ANC's #25, #28, #36, ...

........................................................................
.............................. CYCLE   18 ..............................
........................................................................
   1   -401.9287748 -0.401929E+03  0.143E-02    1.19       0.0  T
   2   -401.9287849 -0.101588E-04  0.832E-03    1.19       1.0  T
   3   -401.9287855 -0.605040E-06  0.537E-03    1.19       1.3  T
   4   -401.9287894 -0.387156E-05  0.327E-03    1.19       2.2  T
   5   -401.9287953 -0.589788E-05  0.822E-04    1.19       8.6  T
   6   -401.9287954 -0.131762E-06  0.368E-04    1.19      19.3  T
   7   -401.9287955 -0.703382E-07  0.110E-04    1.19      64.5  T
   8   -401.9287955 -0.609322E-08  0.481E-05    1.19     147.4  T
     SCC iter.                  ...        0 min,  1.138 sec
     gradient                   ...        0 min,  0.498 sec
 * total energy  :  -396.6965107 Eh     change       -0.4887482E-02 Eh
   gradient norm :     0.0342570 Eh/α   predicted    -0.5783160E-02 (  18.33%)
   displ. norm   :     0.7604355 α      lambda       -0.7271168E-02
   maximum displ.:     0.5481405 α      in ANC's #25, #28, #36, ...

........................................................................
.............................. CYCLE   19 ..............................
........................................................................
   1   -401.9388051 -0.401939E+03  0.125E-02    1.18       0.0  T
   2   -401.9388087 -0.354022E-05  0.107E-02    1.18       1.0  T
   3   -401.9388301 -0.213923E-04  0.453E-03    1.18       1.6  T
   4   -401.9388228  0.726566E-05  0.419E-03    1.18       1.7  T
   5   -401.9388325 -0.967179E-05  0.835E-04    1.18       8.5  T
   6   -401.9388327 -0.240923E-06  0.287E-04    1.18      24.7  T
   7   -401.9388328 -0.613709E-07  0.833E-05    1.18      85.1  T
   8   -401.9388328 -0.475347E-08  0.265E-05    1.18     267.3  T
     SCC iter.                  ...        0 min,  1.142 sec
     gradient                   ...        0 min,  0.497 sec
 * total energy  :  -396.7020902 Eh     change       -0.5579491E-02 Eh
   gradient norm :     0.0243960 Eh/α   predicted    -0.5737906E-02 (   2.84%)
   displ. norm   :     0.8137665 α      lambda       -0.5981059E-02
   maximum displ.:     0.5952682 α      in ANC's #25, #28, #36, ...

........................................................................
.............................. CYCLE   20 ..............................
........................................................................
   1   -401.9582357 -0.401958E+03  0.874E-03    1.19       0.0  T
   2   -401.9582412 -0.551932E-05  0.610E-03    1.19       1.2  T
   3   -401.9582483 -0.704449E-05  0.298E-03    1.19       2.4  T
   4   -401.9582471  0.114453E-05  0.242E-03    1.19       2.9  T
   5   -401.9582503 -0.318794E-05  0.709E-04    1.19      10.0  T
   6   -401.9582505 -0.162184E-06  0.231E-04    1.19      30.7  T
   7   -401.9582505 -0.318154E-07  0.101E-04    1.19      70.2  T
   8   -401.9582505 -0.654609E-08  0.333E-05    1.19     212.8  T
     SCC iter.                  ...        0 min,  1.141 sec
     gradient                   ...        0 min,  0.498 sec
 * total energy  :  -396.7071279 Eh     change       -0.5037709E-02 Eh
   gradient norm :     0.0207090 Eh/α   predicted    -0.4970905E-02 (  -1.33%)
   displ. norm   :     0.8625803 α      lambda       -0.6107545E-02
   maximum displ.:     0.6221558 α      in ANC's #25, #28, #14, ...
 * RMSD in coord.:     0.8089959 α      energy gain  -0.8230191E+00 Eh

generating ANC from model Hessian ...
Using Lindh-Hessian (1995)
 Shifting diagonal of input Hessian by    1.0020146799109184E-002
 Lowest  eigenvalues of input Hessian
    0.010000    0.010005    0.010009    0.010010    0.010011    0.010012
    0.000000    0.000000    0.000000    0.000000    0.000000    0.000000
    0.010042    0.010048    0.010063    0.010098    0.010100    0.010121
 Highest eigenvalues
    3.572728    3.573226    3.661384    3.670089    3.670318    3.670333


........................................................................
.............................. CYCLE   21 ..............................
........................................................................
   1   -401.9670648 -0.401967E+03  0.119E-02    1.19       0.0  T
   2   -401.9670745 -0.976882E-05  0.736E-03    1.19       1.0  T
   3   -401.9670792 -0.470604E-05  0.425E-03    1.19       1.7  T
   4   -401.9670795 -0.303559E-06  0.324E-03    1.19       2.2  T
   5   -401.9670848 -0.524159E-05  0.798E-04    1.19       8.9  T
   6   -401.9670850 -0.255902E-06  0.244E-04    1.19      29.1  T
   7   -401.9670851 -0.346779E-07  0.760E-05    1.19      93.3  T
   8   -401.9670851 -0.378697E-08  0.244E-05    1.19     290.7  T
     SCC iter.                  ...        0 min,  1.137 sec
     gradient                   ...        0 min,  0.496 sec
 * total energy  :  -396.7117200 Eh     change       -0.4592053E-02 Eh
   gradient norm :     0.0358686 Eh/α   predicted     0.0000000E+00 (-100.00%)
   displ. norm   :     0.3787816 α      lambda       -0.3044537E-02
   maximum displ.:     0.3463791 α      in ANC's #26, #13, #54, ...

........................................................................
.............................. CYCLE   22 ..............................
........................................................................
   1   -401.9739421 -0.401974E+03  0.710E-03    1.20       0.0  T
   2   -401.9739451 -0.295058E-05  0.387E-03    1.20       1.8  T
   3   -401.9739453 -0.159018E-06  0.242E-03    1.20       2.9  T
   4   -401.9739462 -0.913131E-06  0.121E-03    1.20       5.9  T
   5   -401.9739466 -0.446014E-06  0.502E-04    1.20      14.1  T
   6   -401.9739468 -0.142676E-06  0.131E-04    1.20      54.2  T
   7   -401.9739468 -0.626437E-08  0.623E-05    1.20     113.8  T
     SCC iter.                  ...        0 min,  0.997 sec
     gradient                   ...        0 min,  0.497 sec
 * total energy  :  -396.7143305 Eh     change       -0.2610533E-02 Eh
   gradient norm :     0.0123239 Eh/α   predicted    -0.1741139E-02 ( -33.30%)
   displ. norm   :     0.5667150 α      lambda       -0.3261676E-02
   maximum displ.:     0.4948506 α      in ANC's #26, #13, #54, ...

........................................................................
.............................. CYCLE   23 ..............................
........................................................................
   1   -401.9810308 -0.401981E+03  0.773E-03    1.20       0.0  T
   2   -401.9810352 -0.435755E-05  0.434E-03    1.20       1.6  T
   3   -401.9810364 -0.121658E-05  0.265E-03    1.20       2.7  T
   4   -401.9810370 -0.606331E-06  0.140E-03    1.20       5.1  T
   5   -401.9810378 -0.812674E-06  0.563E-04    1.20      12.6  T
   6   -401.9810380 -0.150868E-06  0.196E-04    1.20      36.2  T
   7   -401.9810380 -0.174077E-07  0.677E-05    1.20     104.7  T
     SCC iter.                  ...        0 min,  0.994 sec
     gradient                   ...        0 min,  0.494 sec
 * total energy  :  -396.7170482 Eh     change       -0.2717633E-02 Eh
   gradient norm :     0.0157551 Eh/α   predicted    -0.2154609E-02 ( -20.72%)
   displ. norm   :     0.6062614 α      lambda       -0.2985934E-02
   maximum displ.:     0.5085606 α      in ANC's #26, #13, #32, ...

........................................................................
.............................. CYCLE   24 ..............................
........................................................................
   1   -401.9853224 -0.401985E+03  0.504E-03    1.20       0.0  T
   2   -401.9853252 -0.281934E-05  0.288E-03    1.20       2.5  T
   3   -401.9853271 -0.195830E-05  0.183E-03    1.20       3.9  T
   4   -401.9853279 -0.794243E-06  0.945E-04    1.20       7.5  T
   5   -401.9853282 -0.312449E-06  0.405E-04    1.20      17.5  T
   6   -401.9853283 -0.486496E-07  0.169E-04    1.20      41.9  T
   7   -401.9853283 -0.111123E-07  0.684E-05    1.20     103.7  T
     SCC iter.                  ...        0 min,  0.994 sec
     gradient                   ...        0 min,  0.496 sec
 * total energy  :  -396.7195852 Eh     change       -0.2537034E-02 Eh
   gradient norm :     0.0230059 Eh/α   predicted    -0.2041716E-02 ( -19.52%)
   displ. norm   :     0.6190083 α      lambda       -0.2953404E-02
   maximum displ.:     0.5081246 α      in ANC's #26, #13, #32, ...

........................................................................
.............................. CYCLE   25 ..............................
........................................................................
   1   -401.9876482 -0.401988E+03  0.495E-03    1.21       0.0  T
   2   -401.9876508 -0.255390E-05  0.294E-03    1.21       2.4  T
   3   -401.9876538 -0.303363E-05  0.184E-03    1.21       3.9  T
   4   -401.9876554 -0.153162E-05  0.805E-04    1.21       8.8  T
   5   -401.9876554 -0.848196E-07  0.308E-04    1.21      23.0  T
   6   -401.9876555 -0.235127E-07  0.185E-04    1.21      38.4  T
   7   -401.9876555 -0.174618E-07  0.619E-05    1.21     114.6  T
     SCC iter.                  ...        0 min,  0.996 sec
     gradient                   ...        0 min,  0.496 sec
 * total energy  :  -396.7221823 Eh     change       -0.2597146E-02 Eh
   gradient norm :     0.0177053 Eh/α   predicted    -0.2042534E-02 ( -21.35%)
   displ. norm   :     0.6807877 α      lambda       -0.3339592E-02
   maximum displ.:     0.5544251 α      in ANC's #26, #13, #32, ...

........................................................................
.............................. CYCLE   26 ..............................
........................................................................
   1   -401.9902475 -0.401990E+03  0.740E-03    1.21       0.0  T
   2   -401.9902515 -0.401987E-05  0.449E-03    1.21       1.6  T
   3   -401.9902556 -0.412230E-05  0.289E-03    1.21       2.5  T
   4   -401.9902586 -0.295554E-05  0.162E-03    1.21       4.4  T
   5   -401.9902594 -0.759842E-06  0.460E-04    1.21      15.4  T
   6   -401.9902594 -0.732865E-07  0.212E-04    1.21      33.4  T
   7   -401.9902595 -0.262307E-07  0.654E-05    1.21     108.4  T
   8   -401.9902595 -0.239476E-08  0.244E-05    1.21     290.9  T
     SCC iter.                  ...        0 min,  1.128 sec
     gradient                   ...        0 min,  0.487 sec
 * total energy  :  -396.7248114 Eh     change       -0.2629074E-02 Eh
   gradient norm :     0.0144563 Eh/α   predicted    -0.2443698E-02 (  -7.05%)
   displ. norm   :     0.6748538 α      lambda       -0.2506317E-02
   maximum displ.:     0.5528952 α      in ANC's #26, #13, #32, ...

........................................................................
.............................. CYCLE   27 ..............................
........................................................................
   1   -401.9966418 -0.401997E+03  0.588E-03    1.20       0.0  T
   2   -401.9966451 -0.333669E-05  0.369E-03    1.20       1.9  T
   3   -401.9966490 -0.391811E-05  0.206E-03    1.20       3.4  T
   4   -401.9966503 -0.132043E-05  0.122E-03    1.20       5.8  T
   5   -401.9966508 -0.437563E-06  0.396E-04    1.20      17.9  T
   6   -401.9966508 -0.459110E-07  0.183E-04    1.20      38.8  T
   7   -401.9966508 -0.156440E-07  0.720E-05    1.20      98.4  T
     SCC iter.                  ...        0 min,  0.969 sec
     gradient                   ...        0 min,  0.492 sec
 * total energy  :  -396.7270262 Eh     change       -0.2214738E-02 Eh
   gradient norm :     0.0198409 Eh/α   predicted    -0.1823882E-02 ( -17.65%)
   displ. norm   :     0.6699479 α      lambda       -0.2319257E-02
   maximum displ.:     0.5414400 α      in ANC's #26, #13, #32, ...

........................................................................
.............................. CYCLE   28 ..............................
........................................................................
   1   -402.0064523 -0.402006E+03  0.500E-03    1.20       0.0  T
   2   -402.0064550 -0.263216E-05  0.298E-03    1.20       2.4  T
   3   -402.0064574 -0.242667E-05  0.171E-03    1.20       4.1  T
   4   -402.0064581 -0.757979E-06  0.103E-03    1.20       6.9  T
   5   -402.0064585 -0.401173E-06  0.331E-04    1.20      21.4  T
   6   -402.0064586 -0.242688E-07  0.160E-04    1.20      44.2  T
   7   -402.0064586 -0.999000E-08  0.764E-05    1.20      92.8  T
     SCC iter.                  ...        0 min,  0.993 sec
     gradient                   ...        0 min,  0.498 sec
 * total energy  :  -396.7290471 Eh     change       -0.2020922E-02 Eh
   gradient norm :     0.0179317 Eh/α   predicted    -0.1680107E-02 ( -16.86%)
   displ. norm   :     0.7157832 α      lambda       -0.2414274E-02
   maximum displ.:     0.5735773 α      in ANC's #26, #13, #17, ...

........................................................................
.............................. CYCLE   29 ..............................
........................................................................
   1   -402.0189894 -0.402019E+03  0.601E-03    1.20       0.0  T
   2   -402.0189926 -0.315700E-05  0.323E-03    1.20       2.2  T
   3   -402.0189942 -0.160080E-05  0.220E-03    1.20       3.2  T
   4   -402.0189956 -0.147361E-05  0.124E-03    1.20       5.7  T
   5   -402.0189963 -0.640533E-06  0.376E-04    1.20      18.9  T
   6   -402.0189963 -0.241949E-07  0.196E-04    1.20      36.1  T
   7   -402.0189963 -0.165704E-07  0.863E-05    1.20      82.2  T
     SCC iter.                  ...        0 min,  0.996 sec
     gradient                   ...        0 min,  0.496 sec
 * total energy  :  -396.7309265 Eh     change       -0.1879428E-02 Eh
   gradient norm :     0.0117608 Eh/α   predicted    -0.1825612E-02 (  -2.86%)
   displ. norm   :     0.7203016 α      lambda       -0.1976654E-02
   maximum displ.:     0.5789162 α      in ANC's #26, #13, #17, ...

........................................................................
.............................. CYCLE   30 ..............................
........................................................................
   1   -402.0286773 -0.402029E+03  0.544E-03    1.20       0.0  T
   2   -402.0286804 -0.307923E-05  0.328E-03    1.20       2.2  T
   3   -402.0286833 -0.293135E-05  0.193E-03    1.20       3.7  T
   4   -402.0286845 -0.119310E-05  0.109E-03    1.20       6.5  T
   5   -402.0286849 -0.371552E-06  0.367E-04    1.20      19.3  T
   6   -402.0286849 -0.135151E-07  0.231E-04    1.20      30.6  T
   7   -402.0286849 -0.238978E-07  0.891E-05    1.20      79.5  T
   8   -402.0286849 -0.358318E-08  0.306E-05    1.20     231.8  T
     SCC iter.                  ...        0 min,  1.137 sec
     gradient                   ...        0 min,  0.503 sec
 * total energy  :  -396.7326329 Eh     change       -0.1706437E-02 Eh
   gradient norm :     0.0082858 Eh/α   predicted    -0.1501110E-02 ( -12.03%)
   displ. norm   :     0.7668036 α      lambda       -0.1650415E-02
   maximum displ.:     0.6144066 α      in ANC's #26, #13, #17, ...

........................................................................
.............................. CYCLE   31 ..............................
........................................................................
   1   -402.0370497 -0.402037E+03  0.578E-03    1.20       0.0  T
   2   -402.0370540 -0.435769E-05  0.358E-03    1.20       2.0  T
   3   -402.0370576 -0.355779E-05  0.198E-03    1.20       3.6  T
   4   -402.0370586 -0.103888E-05  0.121E-03    1.20       5.8  T
   5   -402.0370591 -0.464512E-06  0.398E-04    1.20      17.8  T
   6   -402.0370591 -0.131424E-07  0.250E-04    1.20      28.4  T
   7   -402.0370591 -0.275534E-07  0.933E-05    1.20      76.0  T
   8   -402.0370591 -0.420420E-08  0.332E-05    1.20     213.8  T
     SCC iter.                  ...        0 min,  1.137 sec
     gradient                   ...        0 min,  0.500 sec
 * total energy  :  -396.7340432 Eh     change       -0.1410227E-02 Eh
   gradient norm :     0.0084516 Eh/α   predicted    -0.1310424E-02 (  -7.08%)
   displ. norm   :     0.7881876 α      lambda       -0.1328910E-02
   maximum displ.:     0.6282873 α      in ANC's #26, #13, #17, ...

........................................................................
.............................. CYCLE   32 ..............................
........................................................................
   1   -402.0468949 -0.402047E+03  0.560E-03    1.20       0.0  T
   2   -402.0468998 -0.490886E-05  0.298E-03    1.20       2.4  T
   3   -402.0469020 -0.224146E-05  0.189E-03    1.20       3.8  T
   4   -402.0469032 -0.112504E-05  0.102E-03    1.20       7.0  T
   5   -402.0469035 -0.315644E-06  0.355E-04    1.20      20.0  T
   6   -402.0469035 -0.134952E-07  0.216E-04    1.20      32.8  T
   7   -402.0469035 -0.203837E-07  0.823E-05    1.20      86.1  T
   8   -402.0469035 -0.298189E-08  0.314E-05    1.20     226.1  T
     SCC iter.                  ...        0 min,  1.138 sec
     gradient                   ...        0 min,  0.500 sec
 * total energy  :  -396.7351644 Eh     change       -0.1121261E-02 Eh
   gradient norm :     0.0068058 Eh/α   predicted    -0.1077242E-02 (  -3.93%)
   displ. norm   :     0.7592076 α      lambda       -0.9593415E-03
   maximum displ.:     0.5956819 α      in ANC's #26, #13, #17, ...

........................................................................
.............................. CYCLE   33 ..............................
........................................................................
   1   -402.0549017 -0.402055E+03  0.537E-03    1.20       0.0  T
   2   -402.0549069 -0.521607E-05  0.274E-03    1.20       2.6  T
   3   -402.0549090 -0.202692E-05  0.170E-03    1.20       4.2  T
   4   -402.0549099 -0.972974E-06  0.903E-04    1.20       7.8  T
   5   -402.0549102 -0.215976E-06  0.329E-04    1.20      21.6  T
   6   -402.0549102 -0.188800E-07  0.185E-04    1.20      38.4  T
   7   -402.0549102 -0.148755E-07  0.688E-05    1.20     103.0  T
     SCC iter.                  ...        0 min,  0.996 sec
     gradient                   ...        0 min,  0.499 sec
 * total energy  :  -396.7359471 Eh     change       -0.7827125E-03 Eh
   gradient norm :     0.0065207 Eh/α   predicted    -0.7561538E-03 (  -3.39%)
   displ. norm   :     0.6774627 α      lambda       -0.6260119E-03
   maximum displ.:     0.5133158 α      in ANC's #26, #13, #17, ...

........................................................................
.............................. CYCLE   34 ..............................
........................................................................
   1   -402.0623101 -0.402062E+03  0.531E-03    1.20       0.0  T
   2   -402.0623152 -0.507804E-05  0.246E-03    1.20       2.9  T
   3   -402.0623165 -0.130906E-05  0.159E-03    1.20       4.5  T
   4   -402.0623173 -0.780746E-06  0.879E-04    1.20       8.1  T
   5   -402.0623176 -0.239820E-06  0.329E-04    1.20      21.5  T
   6   -402.0623176 -0.311818E-07  0.146E-04    1.20      48.5  T
   7   -402.0623176 -0.912047E-08  0.532E-05    1.20     133.2  T
     SCC iter.                  ...        0 min,  0.996 sec
     gradient                   ...        0 min,  0.500 sec
 * total energy  :  -396.7364229 Eh     change       -0.4757978E-03 Eh
   gradient norm :     0.0048185 Eh/α   predicted    -0.4566645E-03 (  -4.02%)
   displ. norm   :     0.5824655 α      lambda       -0.3769458E-03
   maximum displ.:     0.4238928 α      in ANC's #26, #13, #17, ...

........................................................................
.............................. CYCLE   35 ..............................
........................................................................
   1   -402.0651094 -0.402065E+03  0.532E-03    1.19       0.0  T
   2   -402.0651139 -0.457690E-05  0.272E-03    1.19       2.6  T
   3   -402.0651153 -0.131497E-05  0.173E-03    1.19       4.1  T
   4   -402.0651160 -0.764071E-06  0.112E-03    1.19       6.4  T
   5   -402.0651164 -0.397014E-06  0.305E-04    1.19      23.3  T
   6   -402.0651165 -0.328346E-07  0.136E-04    1.19      52.2  T
   7   -402.0651165 -0.981117E-08  0.425E-05    1.19     166.9  T
     SCC iter.                  ...        0 min,  0.997 sec
     gradient                   ...        0 min,  0.497 sec
 * total energy  :  -396.7366550 Eh     change       -0.2320749E-03 Eh
   gradient norm :     0.0090444 Eh/α   predicted    -0.2524167E-03 (   8.77%)
   displ. norm   :     0.3469103 α      lambda       -0.2149312E-03
   maximum displ.:     0.2189823 α      in ANC's #26, #13, #17, ...

........................................................................
.............................. CYCLE   36 ..............................
........................................................................
   1   -402.0698420 -0.402070E+03  0.398E-03    1.19       0.0  T
   2   -402.0698441 -0.208303E-05  0.173E-03    1.19       4.1  T
   3   -402.0698441 -0.612581E-07  0.128E-03    1.19       5.5  T
   4   -402.0698444 -0.276260E-06  0.796E-04    1.19       8.9  T
   5   -402.0698447 -0.268264E-06  0.226E-04    1.19      31.4  T
   6   -402.0698447 -0.199205E-07  0.738E-05    1.19      96.1  T
   7   -402.0698447 -0.248235E-08  0.260E-05    1.19     272.4  T
     SCC iter.                  ...        0 min,  0.995 sec
     gradient                   ...        0 min,  0.499 sec
 * total energy  :  -396.7367976 Eh     change       -0.1425430E-03 Eh
   gradient norm :     0.0026779 Eh/α   predicted    -0.1204025E-03 ( -15.53%)
   displ. norm   :     0.1940762 α      lambda       -0.9433019E-04
   maximum displ.:     0.1362706 α      in ANC's #13, #26, #17, ...

........................................................................
.............................. CYCLE   37 ..............................
........................................................................
   1   -402.0704478 -0.402070E+03  0.201E-03    1.19       0.0  T
   2   -402.0704486 -0.858171E-06  0.934E-04    1.19       7.6  T
   3   -402.0704489 -0.223897E-06  0.562E-04    1.19      12.6  T
   4   -402.0704491 -0.184520E-06  0.225E-04    1.19      31.5  T
   5   -402.0704491 -0.893965E-08  0.866E-05    1.19      81.8  T
   6   -402.0704491 -0.183525E-08  0.431E-05    1.19     164.5  T
     SCC iter.                  ...        0 min,  0.855 sec
     gradient                   ...        0 min,  0.502 sec
 * total energy  :  -396.7368771 Eh     change       -0.7954302E-04 Eh
   gradient norm :     0.0031971 Eh/α   predicted    -0.4894422E-04 ( -38.47%)
   displ. norm   :     0.2323139 α      lambda       -0.1560437E-03
   maximum displ.:     0.1744223 α      in ANC's #13, #24, #17, ...

........................................................................
.............................. CYCLE   38 ..............................
........................................................................
   1   -402.0711841 -0.402071E+03  0.247E-03    1.19       0.0  T
   2   -402.0711853 -0.123735E-05  0.118E-03    1.19       6.0  T
   3   -402.0711856 -0.289526E-06  0.808E-04    1.19       8.8  T
   4   -402.0711859 -0.281469E-06  0.370E-04    1.19      19.2  T
   5   -402.0711859 -0.950195E-08  0.131E-04    1.19      54.1  T
   6   -402.0711859 -0.704875E-08  0.597E-05    1.19     118.8  T
     SCC iter.                  ...        0 min,  0.842 sec
     gradient                   ...        0 min,  0.493 sec
 * total energy  :  -396.7370149 Eh     change       -0.1378402E-03 Eh
   gradient norm :     0.0026189 Eh/α   predicted    -0.8223668E-04 ( -40.34%)
   displ. norm   :     0.4229616 α      lambda       -0.2603822E-03
   maximum displ.:     0.3105396 α      in ANC's #13, #24, #23, ...

........................................................................
.............................. CYCLE   39 ..............................
........................................................................
   1   -402.0695185 -0.402070E+03  0.389E-03    1.19       0.0  T
   2   -402.0695219 -0.346116E-05  0.182E-03    1.19       3.9  T
   3   -402.0695229 -0.101769E-05  0.111E-03    1.19       6.4  T
   4   -402.0695237 -0.756710E-06  0.350E-04    1.19      20.2  T
   5   -402.0695237 -0.114130E-08  0.175E-04    1.19      40.6  T
   6   -402.0695237 -0.470709E-08  0.103E-04    1.19      69.0  T
     SCC iter.                  ...        0 min,  0.838 sec
     gradient                   ...        0 min,  0.495 sec
 * total energy  :  -396.7372295 Eh     change       -0.2145698E-03 Eh
   gradient norm :     0.0045692 Eh/α   predicted    -0.1534835E-03 ( -28.47%)
   displ. norm   :     0.4916956 α      lambda       -0.2497378E-03
   maximum displ.:     0.3629166 α      in ANC's #13, #24, #23, ...

........................................................................
.............................. CYCLE   40 ..............................
........................................................................
   1   -402.0678463 -0.402068E+03  0.369E-03    1.19       0.0  T
   2   -402.0678493 -0.296684E-05  0.173E-03    1.19       4.1  T
   3   -402.0678500 -0.753504E-06  0.108E-03    1.19       6.5  T
   4   -402.0678506 -0.541046E-06  0.515E-04    1.19      13.8  T
   5   -402.0678506 -0.416183E-07  0.187E-04    1.19      37.8  T
   6   -402.0678506 -0.801612E-08  0.106E-04    1.19      66.9  T
     SCC iter.                  ...        0 min,  0.855 sec
     gradient                   ...        0 min,  0.499 sec
 * total energy  :  -396.7374292 Eh     change       -0.1996444E-03 Eh
   gradient norm :     0.0063632 Eh/α   predicted    -0.1550621E-03 ( -22.33%)
   displ. norm   :     0.4895907 α      lambda       -0.2479067E-03
   maximum displ.:     0.3654158 α      in ANC's #13, #24, #23, ...

........................................................................
.............................. CYCLE   41 ..............................
........................................................................
   1   -402.0673463 -0.402067E+03  0.401E-03    1.19       0.0  T
   2   -402.0673487 -0.243266E-05  0.189E-03    1.19       3.8  T
   3   -402.0673489 -0.189122E-06  0.131E-03    1.19       5.4  T
   4   -402.0673492 -0.317596E-06  0.890E-04    1.19       8.0  T
   5   -402.0673496 -0.394386E-06  0.194E-04    1.19      36.6  T
   6   -402.0673496 -0.507947E-08  0.115E-04    1.19      61.6  T
     SCC iter.                  ...        0 min,  0.855 sec
     gradient                   ...        0 min,  0.537 sec
 * total energy  :  -396.7376036 Eh     change       -0.1744738E-03 Eh
   gradient norm :     0.0082145 Eh/α   predicted    -0.1536709E-03 ( -11.92%)
   displ. norm   :     0.4478283 α      lambda       -0.2561123E-03
   maximum displ.:     0.3392665 α      in ANC's #13, #24, #23, ...

........................................................................
.............................. CYCLE   42 ..............................
........................................................................
   1   -402.0680900 -0.402068E+03  0.340E-03    1.19       0.0  T
   2   -402.0680919 -0.188759E-05  0.171E-03    1.19       4.1  T
   3   -402.0680921 -0.191789E-06  0.119E-03    1.19       6.0  T
   4   -402.0680924 -0.302454E-06  0.769E-04    1.19       9.2  T
   5   -402.0680927 -0.283714E-06  0.195E-04    1.19      36.3  T
   6   -402.0680927 -0.445772E-08  0.117E-04    1.19      60.4  T
     SCC iter.                  ...        0 min,  0.856 sec
     gradient                   ...        0 min,  0.499 sec
 * total energy  :  -396.7378072 Eh     change       -0.2035385E-03 Eh
   gradient norm :     0.0055905 Eh/α   predicted    -0.1537390E-03 ( -24.47%)
   displ. norm   :     0.4531020 α      lambda       -0.2352883E-03
   maximum displ.:     0.3485586 α      in ANC's #13, #26, #23, ...
 * RMSD in coord.:     0.7435500 α      energy gain  -0.3067922E-01 Eh

generating ANC from model Hessian ...
Using Lindh-Hessian (1995)
 Shifting diagonal of input Hessian by    1.0021279287913789E-002
 Lowest  eigenvalues of input Hessian
    0.010000    0.010006    0.010009    0.010011    0.010013    0.010015
    0.000000    0.000000    0.000000    0.000000    0.000000    0.000000
    0.010046    0.010066    0.010079    0.010108    0.010140    0.010157
 Highest eigenvalues
    3.572969    3.574181    3.600504    3.606401    3.610371    3.610862


........................................................................
.............................. CYCLE   43 ..............................
........................................................................
   1   -402.0701344 -0.402070E+03  0.365E-03    1.19       0.0  T
   2   -402.0701370 -0.255781E-05  0.179E-03    1.19       4.0  T
   3   -402.0701374 -0.402519E-06  0.132E-03    1.19       5.4  T
   4   -402.0701381 -0.773761E-06  0.662E-04    1.19      10.7  T
   5   -402.0701382 -0.102248E-06  0.251E-04    1.19      28.3  T
   6   -402.0701382 -0.926610E-08  0.143E-04    1.19      49.5  T
   7   -402.0701383 -0.133931E-07  0.451E-05    1.19     157.3  T
     SCC iter.                  ...        0 min,  0.997 sec
     gradient                   ...        0 min,  0.500 sec
 * total energy  :  -396.7379917 Eh     change       -0.1845073E-03 Eh
   gradient norm :     0.0047414 Eh/α   predicted     0.0000000E+00 (-100.00%)
   displ. norm   :     0.0436417 α      lambda       -0.3992795E-04
   maximum displ.:     0.0195602 α      in ANC's #12, #33, #26, ...

........................................................................
.............................. CYCLE   44 ..............................
........................................................................
   1   -402.0700269 -0.402070E+03  0.107E-03    1.19       0.0  T
   2   -402.0700270 -0.535950E-07  0.647E-04    1.19      11.0  T
   3   -402.0700270  0.177355E-07  0.524E-04    1.19      13.5  T
   4   -402.0700271 -0.100083E-06  0.226E-04    1.19      31.4  T
   5   -402.0700271 -0.139544E-07  0.594E-05    1.19     119.3  T
   6   -402.0700271 -0.179296E-08  0.243E-05    1.19     291.5  T
     SCC iter.                  ...        0 min,  0.855 sec
     gradient                   ...        0 min,  0.500 sec
 * total energy  :  -396.7380381 Eh     change       -0.4641981E-04 Eh
   gradient norm :     0.0030691 Eh/α   predicted    -0.2644081E-04 ( -43.04%)
   displ. norm   :     0.2029687 α      lambda       -0.1832368E-03
   maximum displ.:     0.0937521 α      in ANC's #12, #33, #26, ...

........................................................................
.............................. CYCLE   45 ..............................
........................................................................
   1   -402.0695092 -0.402070E+03  0.350E-03    1.19       0.0  T
   2   -402.0695097 -0.431170E-06  0.221E-03    1.19       3.2  T
   3   -402.0695101 -0.429451E-06  0.172E-03    1.19       4.1  T
   4   -402.0695112 -0.114514E-05  0.696E-04    1.19      10.2  T
   5   -402.0695113 -0.720242E-07  0.218E-04    1.19      32.5  T
   6   -402.0695113 -0.287677E-07  0.899E-05    1.19      78.9  T
   7   -402.0695113 -0.573596E-08  0.194E-05    1.19     365.6  T
     SCC iter.                  ...        0 min,  0.995 sec
     gradient                   ...        0 min,  0.500 sec
 * total energy  :  -396.7381569 Eh     change       -0.1187969E-03 Eh
   gradient norm :     0.0046918 Eh/α   predicted    -0.9539631E-04 ( -19.70%)
   displ. norm   :     0.1481547 α      lambda       -0.7268586E-04
   maximum displ.:     0.0754815 α      in ANC's #12, #33, #26, ...

........................................................................
.............................. CYCLE   46 ..............................
........................................................................
   1   -402.0688613 -0.402069E+03  0.166E-03    1.19       0.0  T
   2   -402.0688615 -0.255569E-06  0.978E-04    1.19       7.2  T
   3   -402.0688618 -0.316793E-06  0.675E-04    1.19      10.5  T
   4   -402.0688620 -0.221055E-06  0.248E-04    1.19      28.6  T
   5   -402.0688620  0.165102E-08  0.100E-04    1.19      70.8  T
   6   -402.0688621 -0.492906E-08  0.508E-05    1.19     139.5  T
     SCC iter.                  ...        0 min,  0.858 sec
     gradient                   ...        0 min,  0.502 sec
 * total energy  :  -396.7382139 Eh     change       -0.5696260E-04 Eh
   gradient norm :     0.0050766 Eh/α   predicted    -0.3741911E-04 ( -34.31%)
   displ. norm   :     0.2149666 α      lambda       -0.9813187E-04
   maximum displ.:     0.1171099 α      in ANC's #12, #26, #33, ...

........................................................................
.............................. CYCLE   47 ..............................
........................................................................
   1   -402.0675512 -0.402068E+03  0.262E-03    1.19       0.0  T
   2   -402.0675526 -0.143768E-05  0.129E-03    1.19       5.5  T
   3   -402.0675531 -0.450444E-06  0.839E-04    1.19       8.4  T
   4   -402.0675534 -0.321336E-06  0.361E-04    1.19      19.6  T
   5   -402.0675534 -0.974796E-08  0.129E-04    1.19      54.9  T
   6   -402.0675534 -0.501859E-08  0.741E-05    1.19      95.7  T
     SCC iter.                  ...        0 min,  0.858 sec
     gradient                   ...        0 min,  0.534 sec
 * total energy  :  -396.7382852 Eh     change       -0.7130958E-04 Eh
   gradient norm :     0.0036473 Eh/α   predicted    -0.5165035E-04 ( -27.57%)
   displ. norm   :     0.1834840 α      lambda       -0.7531717E-04
   maximum displ.:     0.1117973 α      in ANC's #12, #26, #33, ...

........................................................................
.............................. CYCLE   48 ..............................
........................................................................
   1   -402.0664943 -0.402066E+03  0.295E-03    1.19       0.0  T
   2   -402.0664964 -0.207637E-05  0.143E-03    1.19       5.0  T
   3   -402.0664967 -0.310977E-06  0.840E-04    1.19       8.4  T
   4   -402.0664967 -0.460299E-07  0.637E-04    1.19      11.1  T
   5   -402.0664969 -0.161782E-06  0.135E-04    1.19      52.7  T
   6   -402.0664969 -0.457987E-08  0.694E-05    1.19     102.2  T
     SCC iter.                  ...        0 min,  0.857 sec
     gradient                   ...        0 min,  0.501 sec
 * total energy  :  -396.7383375 Eh     change       -0.5236800E-04 Eh
   gradient norm :     0.0027950 Eh/α   predicted    -0.3893034E-04 ( -25.66%)
   displ. norm   :     0.1537047 α      lambda       -0.6247614E-04
   maximum displ.:     0.1013018 α      in ANC's #12, #26, #33, ...

........................................................................
.............................. CYCLE   49 ..............................
........................................................................
   1   -402.0658596 -0.402066E+03  0.274E-03    1.19       0.0  T
   2   -402.0658614 -0.179651E-05  0.135E-03    1.19       5.3  T
   3   -402.0658617 -0.262973E-06  0.775E-04    1.19       9.1  T
   4   -402.0658617 -0.178975E-07  0.620E-04    1.19      11.4  T
   5   -402.0658619 -0.164610E-06  0.135E-04    1.19      52.4  T
   6   -402.0658619 -0.458539E-08  0.679E-05    1.19     104.4  T
     SCC iter.                  ...        0 min,  0.856 sec
     gradient                   ...        0 min,  0.499 sec
 * total energy  :  -396.7383823 Eh     change       -0.4478932E-04 Eh
   gradient norm :     0.0036385 Eh/α   predicted    -0.3197932E-04 ( -28.60%)
   displ. norm   :     0.1512913 α      lambda       -0.6670737E-04
   maximum displ.:     0.1042482 α      in ANC's #12, #49, #26, ...

........................................................................
.............................. CYCLE   50 ..............................
........................................................................
   1   -402.0659556 -0.402066E+03  0.256E-03    1.19       0.0  T
   2   -402.0659571 -0.151523E-05  0.125E-03    1.19       5.7  T
   3   -402.0659574 -0.295123E-06  0.745E-04    1.19       9.5  T
   4   -402.0659575 -0.158369E-06  0.500E-04    1.19      14.2  T
   5   -402.0659576 -0.882310E-07  0.143E-04    1.19      49.6  T
   6   -402.0659576 -0.498460E-08  0.764E-05    1.19      92.8  T
     SCC iter.                  ...        0 min,  0.853 sec
     gradient                   ...        0 min,  0.500 sec
 * total energy  :  -396.7384316 Eh     change       -0.4930910E-04 Eh
   gradient norm :     0.0042856 Eh/α   predicted    -0.3415134E-04 ( -30.74%)
   displ. norm   :     0.1592688 α      lambda       -0.6521610E-04
   maximum displ.:     0.1102905 α      in ANC's #12, #49, #50, ...

........................................................................
.............................. CYCLE   51 ..............................
........................................................................
   1   -402.0661438 -0.402066E+03  0.214E-03    1.19       0.0  T
   2   -402.0661447 -0.903642E-06  0.106E-03    1.19       6.7  T
   3   -402.0661450 -0.278927E-06  0.666E-04    1.19      10.6  T
   4   -402.0661452 -0.221645E-06  0.358E-04    1.19      19.8  T
   5   -402.0661453 -0.366933E-07  0.128E-04    1.19      55.4  T
   6   -402.0661453 -0.390230E-08  0.715E-05    1.19      99.2  T
     SCC iter.                  ...        0 min,  0.846 sec
     gradient                   ...        0 min,  0.495 sec
 * total energy  :  -396.7384794 Eh     change       -0.4781527E-04 Eh
   gradient norm :     0.0038422 Eh/α   predicted    -0.3343568E-04 ( -30.07%)
   displ. norm   :     0.1527797 α      lambda       -0.5468810E-04
   maximum displ.:     0.1101545 α      in ANC's #12, #49, #50, ...

........................................................................
.............................. CYCLE   52 ..............................
........................................................................
   1   -402.0664449 -0.402066E+03  0.206E-03    1.19       0.0  T
   2   -402.0664455 -0.641088E-06  0.111E-03    1.19       6.4  T
   3   -402.0664457 -0.182143E-06  0.760E-04    1.19       9.3  T
   4   -402.0664459 -0.217721E-06  0.434E-04    1.19      16.3  T
   5   -402.0664460 -0.617404E-07  0.120E-04    1.19      59.1  T
   6   -402.0664460 -0.284746E-08  0.703E-05    1.19     100.9  T
     SCC iter.                  ...        0 min,  0.832 sec
     gradient                   ...        0 min,  0.496 sec
 * total energy  :  -396.7385205 Eh     change       -0.4102679E-04 Eh
   gradient norm :     0.0031906 Eh/α   predicted    -0.2798276E-04 ( -31.79%)
   displ. norm   :     0.1592971 α      lambda       -0.5416384E-04
   maximum displ.:     0.1200382 α      in ANC's #12, #11, #17, ...

........................................................................
.............................. CYCLE   53 ..............................
........................................................................
   1   -402.0668255 -0.402067E+03  0.245E-03    1.19       0.0  T
   2   -402.0668266 -0.102130E-05  0.129E-03    1.19       5.5  T
   3   -402.0668268 -0.196158E-06  0.889E-04    1.19       8.0  T
   4   -402.0668270 -0.255379E-06  0.527E-04    1.19      13.4  T
   5   -402.0668271 -0.889018E-07  0.121E-04    1.19      58.6  T
   6   -402.0668271 -0.189493E-08  0.689E-05    1.19     103.0  T
     SCC iter.                  ...        0 min,  0.853 sec
     gradient                   ...        0 min,  0.500 sec
 * total energy  :  -396.7385621 Eh     change       -0.4161793E-04 Eh
   gradient norm :     0.0031024 Eh/α   predicted    -0.2777209E-04 ( -33.27%)
   displ. norm   :     0.1928733 α      lambda       -0.6251995E-04
   maximum displ.:     0.1495705 α      in ANC's #12, #11, #5, ...

........................................................................
.............................. CYCLE   54 ..............................
........................................................................
   1   -402.0670636 -0.402067E+03  0.312E-03    1.19       0.0  T
   2   -402.0670658 -0.221639E-05  0.146E-03    1.19       4.9  T
   3   -402.0670662 -0.378547E-06  0.933E-04    1.19       7.6  T
   4   -402.0670665 -0.326788E-06  0.527E-04    1.19      13.5  T
   5   -402.0670666 -0.756645E-07  0.143E-04    1.19      49.6  T
   6   -402.0670666 -0.153562E-08  0.781E-05    1.19      90.8  T
     SCC iter.                  ...        0 min,  0.855 sec
     gradient                   ...        0 min,  0.503 sec
 * total energy  :  -396.7386105 Eh     change       -0.4843154E-04 Eh
   gradient norm :     0.0037983 Eh/α   predicted    -0.3242418E-04 ( -33.05%)
   displ. norm   :     0.2321349 α      lambda       -0.7295696E-04
   maximum displ.:     0.1809812 α      in ANC's #12, #5, #11, ...

........................................................................
.............................. CYCLE   55 ..............................
........................................................................
   1   -402.0671609 -0.402067E+03  0.375E-03    1.19       0.0  T
   2   -402.0671648 -0.393740E-05  0.155E-03    1.19       4.6  T
   3   -402.0671655 -0.645013E-06  0.853E-04    1.19       8.3  T
   4   -402.0671658 -0.369953E-06  0.374E-04    1.19      19.0  T
   5   -402.0671659 -0.246667E-07  0.152E-04    1.19      46.7  T
   6   -402.0671659  0.309683E-09  0.916E-05    1.19      77.4  T
     SCC iter.                  ...        0 min,  0.855 sec
     gradient                   ...        0 min,  0.544 sec
 * total energy  :  -396.7386667 Eh     change       -0.5619709E-04 Eh
   gradient norm :     0.0045049 Eh/α   predicted    -0.3844787E-04 ( -31.58%)
   displ. norm   :     0.2525519 α      lambda       -0.8001479E-04
   maximum displ.:     0.1938159 α      in ANC's #12, #33, #26, ...

........................................................................
.............................. CYCLE   56 ..............................
........................................................................
   1   -402.0674867 -0.402067E+03  0.408E-03    1.19       0.0  T
   2   -402.0674915 -0.488387E-05  0.170E-03    1.19       4.2  T
   3   -402.0674924 -0.853290E-06  0.858E-04    1.19       8.3  T
   4   -402.0674928 -0.383191E-06  0.361E-04    1.19      19.6  T
   5   -402.0674928 -0.156234E-07  0.161E-04    1.19      44.1  T
   6   -402.0674928 -0.100999E-08  0.953E-05    1.19      74.3  T
     SCC iter.                  ...        0 min,  0.856 sec
     gradient                   ...        0 min,  0.501 sec
 * total energy  :  -396.7387269 Eh     change       -0.6021841E-04 Eh
   gradient norm :     0.0043069 Eh/α   predicted    -0.4255976E-04 ( -29.32%)
   displ. norm   :     0.2533978 α      lambda       -0.7096230E-04
   maximum displ.:     0.1962396 α      in ANC's #12, #33, #5, ...

........................................................................
.............................. CYCLE   57 ..............................
........................................................................
   1   -402.0675377 -0.402068E+03  0.434E-03    1.19       0.0  T
   2   -402.0675431 -0.531863E-05  0.195E-03    1.19       3.6  T
   3   -402.0675440 -0.942452E-06  0.992E-04    1.19       7.1  T
   4   -402.0675443 -0.332873E-06  0.630E-04    1.19      11.2  T
   5   -402.0675445 -0.109466E-06  0.175E-04    1.19      40.6  T
   6   -402.0675445 -0.492628E-08  0.999E-05    1.19      71.0  T
     SCC iter.                  ...        0 min,  0.855 sec
     gradient                   ...        0 min,  0.498 sec
 * total energy  :  -396.7387780 Eh     change       -0.5102840E-04 Eh
   gradient norm :     0.0036967 Eh/α   predicted    -0.3776299E-04 ( -26.00%)
   displ. norm   :     0.1639181 α      lambda       -0.5172064E-04
   maximum displ.:     0.1158365 α      in ANC's #12, #33, #26, ...

........................................................................
.............................. CYCLE   58 ..............................
........................................................................
   1   -402.0697127 -0.402070E+03  0.346E-03    1.19       0.0  T
   2   -402.0697146 -0.185575E-05  0.184E-03    1.19       3.9  T
   3   -402.0697148 -0.218662E-06  0.131E-03    1.19       5.4  T
   4   -402.0697152 -0.452824E-06  0.789E-04    1.19       9.0  T
   5   -402.0697154 -0.199626E-06  0.161E-04    1.19      44.1  T
   6   -402.0697155 -0.646412E-08  0.882E-05    1.19      80.4  T
     SCC iter.                  ...        0 min,  0.855 sec
     gradient                   ...        0 min,  0.500 sec
 * total energy  :  -396.7388051 Eh     change       -0.2709786E-04 Eh
   gradient norm :     0.0026891 Eh/α   predicted    -0.2656222E-04 (  -1.98%)
   displ. norm   :     0.2944847 α      lambda       -0.4938959E-04
   maximum displ.:     0.2397548 α      in ANC's #12, #5, #11, ...

........................................................................
.............................. CYCLE   59 ..............................
........................................................................
[...]
   166   6 C    3.929 --   164 C    1.318   177 C    1.318   167 C    1.029
   167   6 C    3.985 --   168 C    1.391   176 C    1.390   166 C    1.029
   168   6 C    3.986 --   169 C    1.450   167 C    1.391   193 H    0.971
                           175 C    0.106
   169   6 C    3.989 --   168 C    1.450   170 C    1.407   194 H    0.967
                           176 C    0.105
   170   6 C    3.929 --   169 C    1.407   175 C    1.406   171 S    0.754
   171  16 S    5.265 --   174 O    1.726   172 O    1.713   173 O    1.013
                           170 C    0.754
   172   8 O    2.072 --   171 S    1.713   174 O    0.138
   173   8 O    2.087 --   171 S    1.013   195 H    0.828
   174   8 O    2.084 --   171 S    1.726   172 O    0.138
   175   6 C    3.989 --   176 C    1.451   170 C    1.406   196 H    0.967
                           168 C    0.106
   176   6 C    3.986 --   175 C    1.451   167 C    1.390   197 H    0.971
                           169 C    0.105
   177   6 C    3.913 --   166 C    1.318   181 N    1.229   178 C    1.178
   178   6 C    3.961 --   179 C    1.647   177 C    1.178   198 H    0.973
   179   6 C    3.961 --   178 C    1.647   180 C    1.185   199 H    0.974
   180   6 C    3.905 --   138 C    1.262   181 N    1.258   179 C    1.185
   181   7 N    3.293 --   180 C    1.258   177 C    1.229   137 Zn   0.456
   182   1 H    1.002 --   140 C    0.974
   183   1 H    1.004 --   141 C    0.973
   184   1 H    1.003 --   146 C    0.971
   185   1 H    1.000 --   147 C    0.967
   186   1 H    0.855 --   151 O    0.828
   187   1 H    1.000 --   153 C    0.967
   188   1 H    1.003 --   154 C    0.971
   189   1 H    1.003 --   156 C    0.973
   190   1 H    1.002 --   157 C    0.974
   191   1 H    1.002 --   162 C    0.974
   192   1 H    1.003 --   163 C    0.973
   193   1 H    1.003 --   168 C    0.971
   194   1 H    1.000 --   169 C    0.967
   195   1 H    0.855 --   173 O    0.828
   196   1 H    1.000 --   175 C    0.967
   197   1 H    1.003 --   176 C    0.971
   198   1 H    1.004 --   178 C    0.973
   199   1 H    1.002 --   179 C    0.974
 ---------------------------------------------------------------------------

Topologies differ in total number of bonds
Writing topology from bond orders to xtbtopo.mol

 dipole moment from electron density (au)
     X       Y       Z   
  -1.6261  -1.1256  -0.2316  total (Debye):    5.061

           -------------------------------------------------
          |                Geometry Summary                 |
           -------------------------------------------------

      molecular mass/u    :     2150.1530147
   center of mass at/Å    :       47.4641060      -0.0016755      -0.0127720
  moments of inertia/u·Å² :        0.7093602E+05   0.2791842E+06   0.3107056E+06
rotational constants/cm⁻¹ :        0.2376456E-03   0.6038177E-04   0.5425597E-04

 * 204 selected distances

     #   Z          #   Z                                           value/Å
     2   6 C        3   6 C                                       1.3895522
     3   6 C        4   6 C                                       1.4366096
     4   6 C        5   6 C                                       1.3560557
     5   6 C        6   6 C                                       1.4396631
     3   6 C        7   7 N                                       1.3654640
     6   6 C        7   7 N                                       1.3638680
     6   6 C        8   6 C                                       1.3999918
     9   6 C       10   6 C                                       1.3972328
    10   6 C       11   6 C                                       1.3851369
    11   6 C       12   6 C                                       1.3855480
    12   6 C       13  16 S                                       1.7525646
    13  16 S       14   8 O                                       1.4335445
    13  16 S       15   8 O                                       1.6246955
    13  16 S       16   8 O                                       1.4336959
    12   6 C       17   6 C                                       1.3855442
     9   6 C       18   6 C                                       1.3975071
    17   6 C       18   6 C                                       1.3849153
     8   6 C       19   6 C                                       1.3998672
    19   6 C       20   6 C                                       1.4375293
    20   6 C       21   6 C                                       1.3570117
    19   6 C       22   7 N                                       1.3679959
    21   6 C       23   6 C                                       1.4338651
    22   7 N       23   6 C                                       1.3609552
    23   6 C       24   6 C                                       1.4073958
    24   6 C       25   6 C                                       1.4073056
    25   6 C       26   6 C                                       1.4337965
    26   6 C       27   6 C                                       1.3571069
    27   6 C       28   6 C                                       1.4375382
    25   6 C       29   7 N                                       1.3608222
    28   6 C       29   7 N                                       1.3680034
    28   6 C       30   6 C                                       1.3998661
    31   6 C       32   6 C                                       1.3972067
    32   6 C       33   6 C                                       1.3851982
    33   6 C       34   6 C                                       1.3854202
    34   6 C       35  16 S                                       1.7530235
    35  16 S       36   8 O                                       1.4343006
    35  16 S       37   8 O                                       1.6249894
    35  16 S       38   8 O                                       1.4323876
    34   6 C       39   6 C                                       1.3856392
    31   6 C       40   6 C                                       1.3975348
    39   6 C       40   6 C                                       1.3849054
    30   6 C       41   6 C                                       1.4000735
    41   6 C       42   6 C                                       1.4397482
    42   6 C       43   6 C                                       1.3559831
     2   6 C       44   6 C                                       1.3895233
    43   6 C       44   6 C                                       1.4366256
    41   6 C       45   7 N                                       1.3638567
    44   6 C       45   7 N                                       1.3655026
     2   6 C       46   1 H                                       1.0855553
     4   6 C       47   1 H                                       1.0786565
     5   6 C       48   1 H                                       1.0782563
    10   6 C       49   1 H                                       1.0837744
    11   6 C       50   1 H                                       1.0827726
    15   8 O       51   1 H                                       0.9648840
    17   6 C       52   1 H                                       1.0827705
    18   6 C       53   1 H                                       1.0838103
    20   6 C       54   1 H                                       1.0780612
    21   6 C       55   1 H                                       1.0783198
    26   6 C       56   1 H                                       1.0783592
    27   6 C       57   1 H                                       1.0780880
    32   6 C       58   1 H                                       1.0837881
    33   6 C       59   1 H                                       1.0827440
    37   8 O       60   1 H                                       0.9650765
    39   6 C       61   1 H                                       1.0827964
    40   6 C       62   1 H                                       1.0838054
    42   6 C       63   1 H                                       1.0782264
    43   6 C       64   1 H                                       1.0786377
    66   6 C       67   6 C                                       1.3895191
    67   6 C       68   6 C                                       1.4365968
    68   6 C       69   6 C                                       1.3560581
    69   6 C       70   6 C                                       1.4396552
    67   6 C       71   7 N                                       1.3654884
    70   6 C       71   7 N                                       1.3637347
    70   6 C       72   6 C                                       1.4000330
    73   6 C       74   6 C                                       1.3972594
    74   6 C       75   6 C                                       1.3850761
    75   6 C       76   6 C                                       1.3855391
    76   6 C       77  16 S                                       1.7525500
    77  16 S       78   8 O                                       1.4334395
    77  16 S       79   8 O                                       1.6246693
    77  16 S       80   8 O                                       1.4338251
    76   6 C       81   6 C                                       1.3855464
    73   6 C       82   6 C                                       1.3973880
    81   6 C       82   6 C                                       1.3849886
    72   6 C       83   6 C                                       1.3996866
    83   6 C       84   6 C                                       1.4375846
    84   6 C       85   6 C                                       1.3569244
    83   6 C       86   7 N                                       1.3681313
    85   6 C       87   6 C                                       1.4339461
    86   7 N       87   6 C                                       1.3608565
    87   6 C       88   6 C                                       1.4074550
    88   6 C       89   6 C                                       1.4073597
    89   6 C       90   6 C                                       1.4338744
    90   6 C       91   6 C                                       1.3570501
    91   6 C       92   6 C                                       1.4375824
    89   6 C       93   7 N                                       1.3607939
    92   6 C       93   7 N                                       1.3681524
    92   6 C       94   6 C                                       1.3997287
    95   6 C       96   6 C                                       1.3972585
    96   6 C       97   6 C                                       1.3851403
    97   6 C       98   6 C                                       1.3854191
    98   6 C       99  16 S                                       1.7530639
    99  16 S      100   8 O                                       1.4342798
    99  16 S      101   8 O                                       1.6251167
    99  16 S      102   8 O                                       1.4324051
    98   6 C      103   6 C                                       1.3856511
    95   6 C      104   6 C                                       1.3974254
   103   6 C      104   6 C                                       1.3849729
    94   6 C      105   6 C                                       1.4001622
   105   6 C      106   6 C                                       1.4397537
   106   6 C      107   6 C                                       1.3559833
    66   6 C      108   6 C                                       1.3894897
   107   6 C      108   6 C                                       1.4365942
   105   6 C      109   7 N                                       1.3637422
   108   6 C      109   7 N                                       1.3655411
    66   6 C      110   1 H                                       1.0855576
    68   6 C      111   1 H                                       1.0786588
    69   6 C      112   1 H                                       1.0782605
    74   6 C      113   1 H                                       1.0837818
    75   6 C      114   1 H                                       1.0827656
    79   8 O      115   1 H                                       0.9648821
    81   6 C      116   1 H                                       1.0827739
    82   6 C      117   1 H                                       1.0837941
    84   6 C      118   1 H                                       1.0780462
    85   6 C      119   1 H                                       1.0783141
    90   6 C      120   1 H                                       1.0783542
    91   6 C      121   1 H                                       1.0780843
    96   6 C      122   1 H                                       1.0837965
    97   6 C      123   1 H                                       1.0827403
   101   8 O      124   1 H                                       0.9647592 (min)
   103   6 C      125   1 H                                       1.0827957
   104   6 C      126   1 H                                       1.0837919
   106   6 C      127   1 H                                       1.0782254
   107   6 C      128   1 H                                       1.0786415
   129   6 C      130   6 C                                       1.2208438
   131   6 C      132   6 C                                       1.2208817
   133   6 C      134   6 C                                       1.2209158
   135   6 C      136   6 C                                       1.2208832
   138   6 C      139   6 C                                       1.4075329
   139   6 C      140   6 C                                       1.4336449
   140   6 C      141   6 C                                       1.3571864
   141   6 C      142   6 C                                       1.4369357
   139   6 C      143   7 N                                       1.3607315
   142   6 C      143   7 N                                       1.3680588
   142   6 C      144   6 C                                       1.3992773
   145   6 C      146   6 C                                       1.3970745
   146   6 C      147   6 C                                       1.3852318
   147   6 C      148   6 C                                       1.3853950
   148   6 C      149  16 S                                       1.7531956 (max)
   149  16 S      150   8 O                                       1.4342326
   149  16 S      151   8 O                                       1.6245666
   149  16 S      152   8 O                                       1.4323830
   148   6 C      153   6 C                                       1.3856137
   145   6 C      154   6 C                                       1.3973530
   153   6 C      154   6 C                                       1.3849618
   144   6 C      155   6 C                                       1.3993184
   155   6 C      156   6 C                                       1.4369199
   156   6 C      157   6 C                                       1.3571457
   155   6 C      158   7 N                                       1.3681666
   157   6 C      159   6 C                                       1.4336042
   158   7 N      159   6 C                                       1.3608349
   159   6 C      160   6 C                                       1.4075840
   160   6 C      161   6 C                                       1.4075448
   161   6 C      162   6 C                                       1.4335391
   162   6 C      163   6 C                                       1.3572098
   163   6 C      164   6 C                                       1.4369637
   161   6 C      165   7 N                                       1.3608387
   164   6 C      165   7 N                                       1.3681666
   164   6 C      166   6 C                                       1.3994012
   167   6 C      168   6 C                                       1.3971228
   168   6 C      169   6 C                                       1.3852190
   169   6 C      170   6 C                                       1.3854055
   170   6 C      171  16 S                                       1.7530506
   171  16 S      172   8 O                                       1.4342038
   171  16 S      173   8 O                                       1.6249354
   171  16 S      174   8 O                                       1.4324913
   170   6 C      175   6 C                                       1.3856356
   167   6 C      176   6 C                                       1.3973842
   175   6 C      176   6 C                                       1.3849576
   166   6 C      177   6 C                                       1.3994089
   177   6 C      178   6 C                                       1.4369787
   178   6 C      179   6 C                                       1.3572392
   138   6 C      180   6 C                                       1.4074250
   179   6 C      180   6 C                                       1.4335627
   177   6 C      181   7 N                                       1.3680691
   180   6 C      181   7 N                                       1.3607414
   140   6 C      182   1 H                                       1.0783078
   141   6 C      183   1 H                                       1.0780765
   146   6 C      184   1 H                                       1.0837792
   147   6 C      185   1 H                                       1.0827442
   151   8 O      186   1 H                                       0.9652683
   153   6 C      187   1 H                                       1.0827956
   154   6 C      188   1 H                                       1.0837955
   156   6 C      189   1 H                                       1.0780344
   157   6 C      190   1 H                                       1.0782766
   162   6 C      191   1 H                                       1.0782989
   163   6 C      192   1 H                                       1.0780397
   168   6 C      193   1 H                                       1.0837688
   169   6 C      194   1 H                                       1.0827489
   173   8 O      195   1 H                                       0.9650701
   175   6 C      196   1 H                                       1.0827953
   176   6 C      197   1 H                                       1.0837998
   178   6 C      198   1 H                                       1.0780774
   179   6 C      199   1 H                                       1.0783292

 * 6 distinct bonds (by element types)

   Z      Z             #   av. dist./Å        max./Å        min./Å
   1 H    6 C          50     1.0809694     1.0855576     1.0780344
   6 C    6 C         100     1.3926690     1.4397537     1.2208438
   6 C    7 N          24     1.3645215     1.3681666     1.3607315
   1 H    8 O           6     0.9649900     0.9652683     0.9647592
   6 C   16 S           6     1.7529080     1.7531956     1.7525500
   8 O   16 S          18     1.4972312     1.6251167     1.4323830


optimized geometry written to: xtbopt.xyz


           -------------------------------------------------
          | TOTAL ENERGY             -396.738878376747 Eh   |
          | GRADIENT NORM               0.000849996511 Eh/α |
          | HOMO-LUMO GAP               1.188594259475 eV   |
           -------------------------------------------------

------------------------------------------------------------------------
 * finished run on 2022/07/30 at 15:55:55.155     
------------------------------------------------------------------------
 total:
 * wall-time:     0 d,  0 h,  2 min,  0.925 sec
 *  cpu-time:     0 d,  0 h,  2 min,  0.346 sec
 * ratio c/w:     0.995 speedup
 SCF:
 * wall-time:     0 d,  0 h,  0 min,  4.422 sec
 *  cpu-time:     0 d,  0 h,  0 min,  4.401 sec
 * ratio c/w:     0.995 speedup
 ANC optimizer:
 * wall-time:     0 d,  0 h,  1 min, 56.294 sec
 *  cpu-time:     0 d,  0 h,  1 min, 55.740 sec
 * ratio c/w:     0.995 speedup

