      -----------------------------------------------------------      
     |                   =====================                   |     
     |                           x T B                           |     
     |                   =====================                   |     
     |                         S. Grimme                         |     
     |          Mulliken Center for Theoretical Chemistry        |     
     |                    University of Bonn                     |     
      -----------------------------------------------------------      

   * xtb version 6.5.1 (b24c23e) compiled by 'conda@728c89f4b128' on 2022-07-12

   xtb is free software: you can redistribute it and/or modify it under
   the terms of the GNU Lesser General Public License as published by
   the Free Software Foundation, either version 3 of the License, or
   (at your option) any later version.
   
   xtb is distributed in the hope that it will be useful,
   but WITHOUT ANY WARRANTY; without even the implied warranty of
   MERCHANTABILITY or FITNESS FOR A PARTICULAR PURPOSE.  See the
   GNU Lesser General Public License for more details.
   
   Cite this work as:
   * C. Bannwarth, E. Caldeweyher, S. Ehlert, A. Hansen, P. Pracht,
     J. Seibert, S. Spicher, S. Grimme, WIREs Comput. Mol. Sci., 2020, 11,
     e01493. DOI: 10.1002/wcms.1493
   
   for GFN2-xTB:
   * C. Bannwarth, S. Ehlert and S. Grimme., J. Chem. Theory Comput., 2019,
     15, 1652-1671. DOI: 10.1021/acs.jctc.8b01176
   for GFN1-xTB:
   * S. Grimme, C. Bannwarth, P. Shushkov, J. Chem. Theory Comput., 2017,
     13, 1989-2009. DOI: 10.1021/acs.jctc.7b00118
   for GFN0-xTB:
   * P. Pracht, E. Caldeweyher, S. Ehlert, S. Grimme, ChemRxiv, 2019, preprint.
     DOI: 10.26434/chemrxiv.8326202.v1
   for GFN-FF:
   * S. Spicher and S. Grimme, Angew. Chem. Int. Ed., 2020, 59, 15665-15673.
     DOI: 10.1002/anie.202004239
   
   for ALPB and GBSA implicit solvation:
   * S. Ehlert, M. Stahn, S. Spicher, S. Grimme, J. Chem. Theory Comput.,
     2021, 17, 4250-4261. DOI: 10.1021/acs.jctc.1c00471
   
   for DFT-D4:
   * E. Caldeweyher, C. Bannwarth and S. Grimme, J. Chem. Phys., 2017,
     147, 034112. DOI: 10.1063/1.4993215
   * E. Caldeweyher, S. Ehlert, A. Hansen, H. Neugebauer, S. Spicher,
     C. Bannwarth and S. Grimme, J. Chem. Phys., 2019, 150, 154122.
     DOI: 10.1063/1.5090222
   * E. Caldeweyher, J.-M. Mewes, S. Ehlert and S. Grimme, Phys. Chem. Chem. Phys.
     2020, 22, 8499-8512. DOI: 10.1039/D0CP00502A
   
   for sTDA-xTB:
   * S. Grimme and C. Bannwarth, J. Chem. Phys., 2016, 145, 054103.
     DOI: 10.1063/1.4959605
   
   in the mass-spec context:
   * V. Asgeirsson, C. Bauer and S. Grimme, Chem. Sci., 2017, 8, 4879.
     DOI: 10.1039/c7sc00601b
   * J. Koopman and S. Grimme, ACS Omega 2019, 4, 12, 15120-15133.
     DOI: 10.1021/acsomega.9b02011
   
   for metadynamics refer to:
   * S. Grimme, J. Chem. Theory Comput., 2019, 155, 2847-2862
     DOI: 10.1021/acs.jctc.9b00143
   
   for SPH calculations refer to:
   * S. Spicher and S. Grimme, J. Chem. Theory Comput., 2021, 17, 1701-1714
     DOI: 10.1021/acs.jctc.0c01306
   
   with help from (in alphabetical order)
   P. Atkinson, C. Bannwarth, F. Bohle, G. Brandenburg, E. Caldeweyher
   M. Checinski, S. Dohm, S. Ehlert, S. Ehrlich, I. Gerasimov, C. Hölzer
   A. Katbashev, J. Koopman, C. Lavigne, S. Lehtola, F. März, M. Müller,
   F. Musil, H. Neugebauer, J. Pisarek, C. Plett, P. Pracht, F. Pultar,
   J. Seibert, P. Shushkov, S. Spicher, M. Stahn, M. Steiner, T. Strunk,
   J. Stückrath, T. Rose, and J. Unsleber
   
 * started run on 2022/07/30 at 15:40:11.442     

           -------------------------------------------------
          |                Calculation Setup                |
           -------------------------------------------------

          program call               : xtb xtbopt.xyz --gfn 1 --vipea
          hostname                   : cx3-15-13.cx3.hpc.ic.ac.uk
          coordinate file            : xtbopt.xyz
          omp threads                :                     1

   ID    Z sym.   atoms
    1   30 Zn     1, 65, 133
    2    6 C      2-6, 8-12, 17-21, 23-28, 30-34, 39-44, 66-70, 72-76, 81-85,
                  87-92, 94-98, 103-108, 129-132, 134-138, 140-144, 149-153,
                  155-160, 162-166, 171-176
    3    7 N      7, 22, 29, 45, 71, 86, 93, 109, 139, 154, 161, 177
    4   16 S      13, 35, 77, 99, 145, 167
    5    8 O      14-16, 36-38, 78-80, 100-102, 146-148, 168-170
    6    1 H      46-64, 110-128, 178-195

           -------------------------------------------------
          |                 I P E A - x T B                 |
           -------------------------------------------------

        Reference                      10.1039/c7sc00601b
      * Hamiltonian:
        H0-scaling (s, p, d)           2.150000    2.300000    2.000000
        zeta-weighting                 0.000000
      * Dispersion:
        s8                             2.400000
        a1                             0.630000
        a2                             5.000000
        s9                             0.000000
      * Repulsion:
        kExp                           1.500000
        rExp                           1.000000
      * Coulomb:
        alpha                          1.000000
        third order                    atomic
        anisotropic                    false
      * Halogen bond correction:
        rad-scale                      1.300000
        damping                        0.440000


          ...................................................
          :                      SETUP                      :
          :.................................................:
          :  # basis functions                 834          :
          :  # atomic orbitals                 828          :
          :  # shells                          526          :
          :  # electrons                       666          :
          :  # halogen bonds                     0          :
          :  max. iterations                   250          :
          :  Hamiltonian                  GFN1-xTB          :
          :  restarted?                      false          :
          :  GBSA solvation                  false          :
          :  PC potential                    false          :
          :  electronic temp.          300.0000000     K    :
          :  accuracy                    1.0000000          :
          :  -> integral cutoff          0.2500000E+02      :
          :  -> integral neglect         0.1000000E-07      :
          :  -> SCF convergence          0.1000000E-05 Eh   :
          :  -> wf. convergence          0.2000000E-04 e    :
          :  Broyden damping             0.4000000          :
          ...................................................

 iter      E             dE          RMSdq      gap      omega  full diag
   1   -429.4372150 -0.429437E+03  0.104E+01    1.58       0.0  T
   2   -429.0380916  0.399123E+00  0.709E+00    1.48       1.0  T
   3   -431.3714231 -0.233333E+01  0.457E+00    1.17       1.0  T
   4   -433.7055500 -0.233413E+01  0.166E+00    1.59       1.0  T
   5   -434.9632319 -0.125768E+01  0.335E-01    1.46       1.0  T
   6   -435.0026120 -0.393801E-01  0.142E-01    1.52       1.0  T
   7   -435.0063445 -0.373246E-02  0.812E-02    1.49       1.0  T
   8   -435.0077487 -0.140421E-02  0.344E-02    1.49       1.0  T
   9   -435.0078551 -0.106451E-03  0.202E-02    1.49       1.0  T
  10   -435.0079918 -0.136701E-03  0.720E-03    1.49       1.0  T
  11   -435.0080062 -0.144286E-04  0.402E-03    1.49       1.8  T
  12   -435.0080132 -0.695476E-05  0.613E-04    1.49      11.7  T
  13   -435.0080134 -0.158058E-06  0.216E-04    1.49      33.1  T
  14   -435.0080134 -0.133994E-07  0.118E-04    1.49      60.4  T
  15   -435.0080134 -0.474347E-08  0.506E-05    1.49     141.6  T

   *** convergence criteria satisfied after 15 iterations ***

         #    Occupation            Energy/Eh            Energy/eV
      -------------------------------------------------------------
         1        2.0000           -1.1181167             -30.4255
       ...           ...                  ...                  ...
       327        2.0000           -0.4367184             -11.8837
       328        2.0000           -0.4012185             -10.9177
       329        2.0000           -0.3996495             -10.8750
       330        2.0000           -0.3990402             -10.8584
       331        2.0000           -0.3989947             -10.8572
       332        2.0000           -0.3915031             -10.6533
       333        2.0000           -0.3833060             -10.4303 (HOMO)
       334                         -0.3284567              -8.9378 (LUMO)
       335                         -0.3174751              -8.6389
       336                         -0.3174456              -8.6381
       337                         -0.3162877              -8.6066
       338                         -0.3155581              -8.5868
       ...                                ...                  ...
       828                        551.3945243           15004.2087
      -------------------------------------------------------------
                  HL-Gap            0.0548493 Eh            1.4925 eV
             Fermi-level           -0.3558813 Eh           -9.6840 eV

 SCC (total)                   0 d,  0 h,  0 min,  4.959 sec
 SCC setup                      ...        0 min,  0.005 sec (  0.100%)
 Dispersion                     ...        0 min,  0.007 sec (  0.145%)
 classical contributions        ...        0 min,  0.003 sec (  0.056%)
 integral evaluation            ...        0 min,  0.527 sec ( 10.636%)
 iterations                     ...        0 min,  3.168 sec ( 63.883%)
 molecular gradient             ...        0 min,  1.203 sec ( 24.265%)
 printout                       ...        0 min,  0.045 sec (  0.915%)

         :::::::::::::::::::::::::::::::::::::::::::::::::::::
         ::                     SUMMARY                     ::
         :::::::::::::::::::::::::::::::::::::::::::::::::::::
         :: total energy            -427.950786688839 Eh    ::
         :: gradient norm              0.093120728293 Eh/a0 ::
         :: HOMO-LUMO gap              1.492524657649 eV    ::
         ::.................................................::
         :: SCC energy              -435.008013379316 Eh    ::
         :: -> electrostatic           0.495198112092 Eh    ::
         :: repulsion energy           7.241158711889 Eh    ::
         :: dispersion energy         -0.183932021411 Eh    ::
         :: halogen bond corr.         0.000000000000 Eh    ::
         :: add. restraining           0.000000000000 Eh    ::
         :: total charge              -0.000000000000 e     ::
         :::::::::::::::::::::::::::::::::::::::::::::::::::::

           ------------------------------------------------- 
          |        vertical delta SCC IP calculation        |
           ------------------------------------------------- 
   1   -434.5841917 -0.434584E+03  0.116E-01    1.49       0.0  T
   2   -434.5861921 -0.200041E-02  0.112E-01    1.43       1.0  T
   3   -434.5919240 -0.573190E-02  0.684E-02    1.47       1.0  T
   4   -434.5901786  0.174540E-02  0.722E-02    1.46       1.0  T
   5   -434.5940600 -0.388142E-02  0.352E-02    1.47       1.0  T
   6   -434.5945876 -0.527589E-03  0.196E-02    1.47       1.0  T
   7   -434.5947436 -0.155970E-03  0.982E-03    1.46       1.0  T
   8   -434.5947867 -0.431936E-04  0.336E-03    1.46       2.1  T
   9   -434.5947898 -0.309996E-05  0.172E-03    1.46       4.2  T
  10   -434.5947902 -0.385503E-06  0.113E-03    1.46       6.3  T
  11   -434.5947908 -0.522931E-06  0.319E-04    1.46      22.5  T
  12   -434.5947908 -0.418695E-07  0.160E-04    1.46      44.8  T
  13   -434.5947908 -0.808456E-08  0.761E-05    1.46      94.1  T
     SCC iter.                  ...        0 min,  2.735 sec
     gradient                   ...        0 min,  1.196 sec
------------------------------------------------------------------------
empirical IP shift (eV):    4.8455
delta SCC IP (eV):    6.3989
------------------------------------------------------------------------
           ------------------------------------------------- 
          |        vertical delta SCC EA calculation        |
           ------------------------------------------------- 
   1   -435.2640949 -0.435264E+03  0.214E-01    0.30       0.0  T
   2   -435.2724596 -0.836471E-02  0.221E-01    0.05       1.0  T
   3   -435.2998108 -0.273511E-01  0.104E-01    0.17       1.0  T
   4   -435.2943279  0.548290E-02  0.107E-01    0.11       1.0  T
   5   -435.3015129 -0.718507E-02  0.691E-02    0.15       1.0  T
   6   -435.3043009 -0.278793E-02  0.372E-02    0.15       1.0  T
   7   -435.3049855 -0.684657E-03  0.189E-02    0.14       1.0  T
   8   -435.3052511 -0.265627E-03  0.717E-03    0.15       1.0  T
   9   -435.3052705 -0.193850E-04  0.502E-03    0.16       1.4  T
  10   -435.3052952 -0.246692E-04  0.268E-03    0.15       2.7  T
  11   -435.3053040 -0.879338E-05  0.874E-04    0.15       8.2  T
  12   -435.3053045 -0.500885E-06  0.413E-04    0.15      17.3  T
  13   -435.3053045 -0.301497E-07  0.233E-04    0.15      30.7  T
  14   -435.3053046 -0.326028E-07  0.996E-05    0.15      71.9  T
  15   -435.3053046 -0.509300E-08  0.295E-05    0.15     242.3  T
     SCC iter.                  ...        0 min,  3.151 sec
     gradient                   ...        0 min,  1.195 sec
------------------------------------------------------------------------
empirical EA shift (eV):    4.8455
delta SCC EA (eV):    3.2442
------------------------------------------------------------------------
           -------------------------------------------------
          |                Property Printout                |
           -------------------------------------------------

    * Orbital Energies and Occupations

         #    Occupation            Energy/Eh            Energy/eV
      -------------------------------------------------------------
         1        2.0000           -1.0786474             -29.3515
       ...           ...                  ...                  ...
       322        2.0000           -0.3829019             -10.4193
       323        2.0000           -0.3828487             -10.4178
       324        2.0000           -0.3806744             -10.3587
       325        2.0000           -0.3792486             -10.3199
       326        2.0000           -0.3783871             -10.2964
       327        2.0000           -0.3738395             -10.1727
       328        2.0000           -0.3428113              -9.3284
       329        2.0000           -0.3425029              -9.3200
       330        2.0000           -0.3398071              -9.2466
       331        2.0000           -0.3372414              -9.1768
       332        2.0000           -0.3342145              -9.0944
       333        2.0000           -0.3222958              -8.7701
       334        0.9321           -0.2668708              -7.2619 (HOMO)
       335        0.0379           -0.2613105              -7.1106 (LUMO)
       336        0.0256           -0.2609258              -7.1002
       337        0.0042           -0.2591982              -7.0531
       338        0.0001           -0.2559043              -6.9635
       339                         -0.2484819              -6.7615
       340                         -0.2262760              -6.1573
       341                         -0.2251249              -6.1260
       342                         -0.2211923              -6.0189
       343                         -0.2179898              -5.9318
       344                         -0.2177194              -5.9244
       345                         -0.2132439              -5.8027
       ...                                ...                  ...
       828                        551.4567472           15005.9019
      -------------------------------------------------------------
                  HL-Gap            0.0055603 Eh            0.1513 eV
             Fermi-level           -0.2794829 Eh           -7.6051 eV

  Mulliken/CM5 charges         n(s)   n(p)   n(d)
     1Zn    0.36449  0.69056   0.761  0.874  0.000
     2C    -0.02813 -0.06928   1.086  2.942  0.000
     3C     0.05606  0.11775   1.118  2.825  0.000
     4C    -0.03990 -0.08598   1.089  2.951  0.000
     5C    -0.03743 -0.08311   1.083  2.955  0.000
     6C     0.05618  0.12169   1.110  2.834  0.000
     7N    -0.23905 -0.48336   1.349  3.890  0.000
     8C     0.00576  0.01116   1.090  2.904  0.000
     9C     0.01585  0.00719   1.096  2.888  0.000
    10C    -0.01719 -0.07038   1.081  2.936  0.000
    11C    -0.01158 -0.06223   1.096  2.916  0.000
    12C     0.03074  0.03971   1.151  2.819  0.000
    13S     0.44959  0.53653   1.583  2.659  1.309
    14O    -0.28125 -0.33134   1.702  4.580  0.000
    15O    -0.29361 -0.48836   1.691  4.602  0.000
    16O    -0.28285 -0.33353   1.699  4.584  0.000
    17C    -0.01129 -0.06193   1.095  2.916  0.000
    18C    -0.01650 -0.06964   1.081  2.935  0.000
    19C     0.05558  0.12046   1.108  2.836  0.000
    20C    -0.03666 -0.08234   1.080  2.956  0.000
    21C    -0.03544 -0.08070   1.085  2.951  0.000
    22N    -0.23635 -0.47954   1.350  3.886  0.000
    23C     0.06094  0.12718   1.123  2.816  0.000
    24C     0.01422  0.02111   1.084  2.902  0.000
    25C     0.06084  0.12707   1.123  2.817  0.000
    26C    -0.03563 -0.08088   1.085  2.951  0.000
    27C    -0.03697 -0.08263   1.080  2.957  0.000
    28C     0.05550  0.12040   1.108  2.836  0.000
    29N    -0.23634 -0.47947   1.350  3.886  0.000
    30C     0.00580  0.01119   1.090  2.904  0.000
    31C     0.01582  0.00715   1.096  2.888  0.000
    32C    -0.01721 -0.07040   1.081  2.937  0.000
    33C    -0.01160 -0.06224   1.095  2.916  0.000
    34C     0.03070  0.03967   1.151  2.819  0.000
    35S     0.44940  0.53633   1.583  2.659  1.309
    36O    -0.28330 -0.33401   1.699  4.585  0.000
    37O    -0.29188 -0.48661   1.691  4.601  0.000
    38O    -0.28287 -0.33292   1.702  4.581  0.000
    39C    -0.01126 -0.06190   1.095  2.916  0.000
    40C    -0.01651 -0.06964   1.081  2.935  0.000
    41C     0.05632  0.12182   1.110  2.834  0.000
    42C    -0.03705 -0.08274   1.083  2.954  0.000
    43C    -0.03968 -0.08576   1.089  2.951  0.000
    44C     0.05614  0.11783   1.119  2.825  0.000
    45N    -0.23907 -0.48334   1.349  3.890  0.000
    46H     0.02337  0.08223   0.977  0.000  0.000
    47H     0.02978  0.08630   0.970  0.000  0.000
    48H     0.02416  0.08291   0.976  0.000  0.000
    49H     0.03024  0.08818   0.970  0.000  0.000
    50H     0.04074  0.10165   0.959  0.000  0.000
    51H     0.22517  0.40341   0.775  0.000  0.000
    52H     0.04223  0.10314   0.958  0.000  0.000
    53H     0.03135  0.08936   0.969  0.000  0.000
    54H     0.02481  0.08357   0.975  0.000  0.000
    55H     0.02468  0.08276   0.975  0.000  0.000
    56H     0.02458  0.08263   0.975  0.000  0.000
    57H     0.02549  0.08425   0.975  0.000  0.000
    58H     0.03036  0.08831   0.970  0.000  0.000
    59H     0.04091  0.10177   0.959  0.000  0.000
    60H     0.22638  0.40462   0.774  0.000  0.000
    61H     0.04193  0.10290   0.958  0.000  0.000
    62H     0.03116  0.08915   0.969  0.000  0.000
    63H     0.02356  0.08230   0.976  0.000  0.000
    64H     0.02996  0.08648   0.970  0.000  0.000
    65Zn    0.36448  0.69011   0.762  0.874  0.000
    66C    -0.02817 -0.06932   1.086  2.942  0.000
    67C     0.05619  0.11789   1.119  2.825  0.000
    68C    -0.03988 -0.08595   1.089  2.951  0.000
    69C    -0.03733 -0.08299   1.083  2.954  0.000
    70C     0.05612  0.12165   1.110  2.834  0.000
    71N    -0.23888 -0.48313   1.349  3.890  0.000
    72C     0.00626  0.01166   1.091  2.903  0.000
    73C     0.01598  0.00730   1.096  2.888  0.000
    74C    -0.01714 -0.07027   1.081  2.936  0.000
    75C    -0.01158 -0.06221   1.096  2.916  0.000
    76C     0.03082  0.03979   1.151  2.819  0.000
    77S     0.44966  0.53659   1.583  2.659  1.309
    78O    -0.28141 -0.33152   1.702  4.580  0.000
    79O    -0.29350 -0.48823   1.692  4.602  0.000
    80O    -0.28254 -0.33321   1.699  4.584  0.000
    81C    -0.01107 -0.06173   1.095  2.916  0.000
    82C    -0.01640 -0.06962   1.081  2.936  0.000
    83C     0.05568  0.12053   1.108  2.836  0.000
    84C    -0.03653 -0.08221   1.081  2.956  0.000
    85C    -0.03541 -0.08066   1.085  2.950  0.000
    86N    -0.23614 -0.47911   1.350  3.886  0.000
    87C     0.06131  0.12758   1.123  2.816  0.000
    88C     0.01409  0.02094   1.083  2.903  0.000
    89C     0.06122  0.12750   1.123  2.816  0.000
    90C    -0.03559 -0.08083   1.085  2.950  0.000
    91C    -0.03684 -0.08250   1.081  2.956  0.000
    92C     0.05559  0.12045   1.108  2.836  0.000
    93N    -0.23614 -0.47905   1.350  3.886  0.000
    94C     0.00631  0.01170   1.091  2.903  0.000
    95C     0.01597  0.00730   1.096  2.888  0.000
    96C    -0.01719 -0.07034   1.081  2.936  0.000
    97C    -0.01164 -0.06227   1.095  2.916  0.000
    98C     0.03082  0.03979   1.151  2.819  0.000
    99S     0.44950  0.53642   1.583  2.659  1.308
   100O    -0.28219 -0.33273   1.699  4.583  0.000
   101O    -0.29195 -0.48668   1.691  4.601  0.000
   102O    -0.28382 -0.33401   1.701  4.583  0.000
   103C    -0.01093 -0.06158   1.096  2.915  0.000
   104C    -0.01635 -0.06955   1.081  2.935  0.000
   105C     0.05628  0.12181   1.110  2.834  0.000
   106C    -0.03693 -0.08261   1.083  2.954  0.000
   107C    -0.03966 -0.08574   1.089  2.951  0.000
   108C     0.05626  0.11795   1.119  2.825  0.000
   109N    -0.23887 -0.48312   1.349  3.890  0.000
   110H     0.02334  0.08221   0.977  0.000  0.000
   111H     0.02980  0.08632   0.970  0.000  0.000
   112H     0.02419  0.08289   0.976  0.000  0.000
   113H     0.03022  0.08817   0.970  0.000  0.000
   114H     0.04067  0.10161   0.959  0.000  0.000
   115H     0.22528  0.40355   0.775  0.000  0.000
   116H     0.04270  0.10358   0.957  0.000  0.000
   117H     0.03201  0.08993   0.968  0.000  0.000
   118H     0.02469  0.08353   0.975  0.000  0.000
   119H     0.02443  0.08251   0.976  0.000  0.000
   120H     0.02428  0.08235   0.976  0.000  0.000
   121H     0.02535  0.08415   0.975  0.000  0.000
   122H     0.03026  0.08824   0.970  0.000  0.000
   123H     0.04097  0.10182   0.959  0.000  0.000
   124H     0.22635  0.40456   0.774  0.000  0.000
   125H     0.04229  0.10326   0.958  0.000  0.000
   126H     0.03191  0.08981   0.968  0.000  0.000
   127H     0.02366  0.08239   0.976  0.000  0.000
   128H     0.02998  0.08650   0.970  0.000  0.000
   129C    -0.02950 -0.03179   1.069  2.961  0.000
   130C    -0.02579 -0.02808   1.073  2.952  0.000
   131C    -0.02585 -0.02817   1.073  2.953  0.000
   132C    -0.02939 -0.03172   1.068  2.961  0.000
   133Zn    0.36421  0.68858   0.763  0.873  0.000
   134C     0.00922  0.01611   1.079  2.912  0.000
   135C     0.06061  0.12686   1.123  2.817  0.000
   136C    -0.03799 -0.08325   1.083  2.955  0.000
   137C    -0.03708 -0.08277   1.081  2.956  0.000
   138C     0.05352  0.11836   1.106  2.840  0.000
   139N    -0.23710 -0.48033   1.350  3.887  0.000
   140C     0.00826  0.01359   1.092  2.899  0.000
   141C     0.01650  0.00781   1.096  2.887  0.000
   142C    -0.01637 -0.06963   1.080  2.936  0.000
   143C    -0.01132 -0.06198   1.095  2.917  0.000
   144C     0.03082  0.03977   1.151  2.819  0.000
   145S     0.44921  0.53621   1.583  2.659  1.309
   146O    -0.28124 -0.33146   1.702  4.580  0.000
   147O    -0.29216 -0.48691   1.691  4.601  0.000
   148O    -0.28427 -0.33494   1.699  4.585  0.000
   149C    -0.01128 -0.06191   1.096  2.915  0.000
   150C    -0.01632 -0.06944   1.082  2.935  0.000
   151C     0.05375  0.11853   1.106  2.840  0.000
   152C    -0.03689 -0.08260   1.081  2.956  0.000
   153C    -0.03786 -0.08312   1.084  2.954  0.000
   154N    -0.23710 -0.48016   1.350  3.887  0.000
   155C     0.06092  0.12720   1.123  2.816  0.000
   156C     0.00926  0.01611   1.078  2.912  0.000
   157C     0.06093  0.12721   1.123  2.816  0.000
   158C    -0.03786 -0.08311   1.084  2.954  0.000
   159C    -0.03695 -0.08264   1.081  2.956  0.000
   160C     0.05372  0.11851   1.106  2.840  0.000
   161N    -0.23712 -0.48011   1.350  3.887  0.000
   162C     0.00818  0.01350   1.092  2.900  0.000
   163C     0.01657  0.00787   1.097  2.887  0.000
   164C    -0.01633 -0.06958   1.080  2.936  0.000
   165C    -0.01131 -0.06197   1.095  2.917  0.000
   166C     0.03077  0.03972   1.151  2.819  0.000
   167S     0.44916  0.53613   1.583  2.659  1.309
   168O    -0.28125 -0.33149   1.702  4.580  0.000
   169O    -0.29245 -0.48719   1.691  4.601  0.000
   170O    -0.28428 -0.33493   1.699  4.585  0.000
   171C    -0.01134 -0.06197   1.096  2.915  0.000
   172C    -0.01637 -0.06947   1.082  2.935  0.000
   173C     0.05344  0.11831   1.106  2.841  0.000
   174C    -0.03726 -0.08293   1.081  2.956  0.000
   175C    -0.03811 -0.08337   1.083  2.955  0.000
   176C     0.06060  0.12686   1.123  2.817  0.000
   177N    -0.23717 -0.48026   1.350  3.888  0.000
   178H     0.02201  0.08008   0.978  0.000  0.000
   179H     0.02394  0.08271   0.976  0.000  0.000
   180H     0.03144  0.08933   0.969  0.000  0.000
   181H     0.04196  0.10274   0.958  0.000  0.000
   182H     0.22551  0.40381   0.774  0.000  0.000
   183H     0.04056  0.10164   0.959  0.000  0.000
   184H     0.03047  0.08852   0.970  0.000  0.000
   185H     0.02295  0.08181   0.977  0.000  0.000
   186H     0.02178  0.07987   0.978  0.000  0.000
   187H     0.02174  0.07982   0.978  0.000  0.000
   188H     0.02289  0.08174   0.977  0.000  0.000
   189H     0.03164  0.08952   0.968  0.000  0.000
   190H     0.04205  0.10281   0.958  0.000  0.000
   191H     0.22527  0.40359   0.775  0.000  0.000
   192H     0.04044  0.10153   0.960  0.000  0.000
   193H     0.03048  0.08851   0.970  0.000  0.000
   194H     0.02368  0.08242   0.976  0.000  0.000
   195H     0.02181  0.07989   0.978  0.000  0.000

Wiberg/Mayer (AO) data.
largest (>0.10) Wiberg bond orders for each atom

 ---------------------------------------------------------------------------
     #   Z sym  total        # sym  WBO       # sym  WBO       # sym  WBO
 ---------------------------------------------------------------------------
     1  30 Zn   2.427 --    45 N    0.568     7 N    0.567    22 N    0.562
                            29 N    0.561
     2   6 C    3.797 --    44 C    1.387     3 C    1.386    46 H    0.998
     3   6 C    3.943 --     2 C    1.386     7 N    1.283     4 C    1.199
     4   6 C    3.845 --     5 C    1.643     3 C    1.199    47 H    0.994
     5   6 C    3.831 --     4 C    1.643     6 C    1.205    48 H    1.000
     6   6 C    3.913 --     8 C    1.365     7 N    1.278     5 C    1.205
     7   7 N    2.997 --     3 C    1.283     6 C    1.278     1 Zn   0.567
     8   6 C    3.828 --     6 C    1.365    19 C    1.359     9 C    1.053
     9   6 C    3.898 --    10 C    1.422    18 C    1.421     8 C    1.053
    10   6 C    3.867 --    11 C    1.454     9 C    1.422    49 H    0.988
    11   6 C    3.914 --    10 C    1.454    12 C    1.418    50 H    0.985
    12   6 C    3.935 --    11 C    1.418    17 C    1.417    13 S    0.891
    13  16 S    5.800 --    14 O    1.896    16 O    1.889    15 O    1.078
                            12 C    0.891
    14   8 O    2.235 --    13 S    1.896    16 O    0.134    15 O    0.101
    15   8 O    2.282 --    13 S    1.078    51 H    0.939    14 O    0.101
    16   8 O    2.221 --    13 S    1.889    14 O    0.134
    17   6 C    3.913 --    18 C    1.455    12 C    1.417    52 H    0.985
    18   6 C    3.867 --    17 C    1.455     9 C    1.421    53 H    0.988
    19   6 C    3.900 --     8 C    1.359    22 N    1.273    20 C    1.215
    20   6 C    3.822 --    21 C    1.624    19 C    1.215    54 H    0.998
    21   6 C    3.826 --    20 C    1.624    23 C    1.224    55 H    0.999
    22   7 N    3.006 --    23 C    1.305    19 C    1.273     1 Zn   0.562
    23   6 C    3.922 --    22 N    1.305    24 C    1.305    21 C    1.224
    24   6 C    3.813 --    23 C    1.305    25 C    1.305   129 C    1.192
    25   6 C    3.922 --    24 C    1.305    29 N    1.305    26 C    1.225
    26   6 C    3.827 --    27 C    1.624    25 C    1.225    56 H    0.999
    27   6 C    3.822 --    26 C    1.624    28 C    1.216    57 H    0.998
    28   6 C    3.900 --    30 C    1.358    29 N    1.273    27 C    1.216
    29   7 N    3.006 --    25 C    1.305    28 C    1.273     1 Zn   0.561
    30   6 C    3.828 --    41 C    1.366    28 C    1.358    31 C    1.053
    31   6 C    3.898 --    32 C    1.422    40 C    1.421    30 C    1.053
    32   6 C    3.867 --    33 C    1.454    31 C    1.422    58 H    0.988
    33   6 C    3.914 --    32 C    1.454    34 C    1.417    59 H    0.985
    34   6 C    3.936 --    33 C    1.417    39 C    1.417    35 S    0.892
    35  16 S    5.800 --    38 O    1.894    36 O    1.889    37 O    1.079
                            34 C    0.892
    36   8 O    2.221 --    35 S    1.889    38 O    0.134
    37   8 O    2.282 --    35 S    1.079    60 H    0.939    38 O    0.101
    38   8 O    2.233 --    35 S    1.894    36 O    0.134    37 O    0.101
    39   6 C    3.914 --    40 C    1.455    34 C    1.417    61 H    0.985
    40   6 C    3.868 --    39 C    1.455    31 C    1.421    62 H    0.988
    41   6 C    3.913 --    30 C    1.366    45 N    1.278    42 C    1.205
    42   6 C    3.831 --    43 C    1.643    41 C    1.205    63 H    0.999
    43   6 C    3.845 --    42 C    1.643    44 C    1.199    64 H    0.994
    44   6 C    3.943 --     2 C    1.387    45 N    1.283    43 C    1.199
    45   7 N    2.996 --    44 C    1.283    41 C    1.278     1 Zn   0.568
    46   1 H    1.033 --     2 C    0.998
    47   1 H    1.021 --     4 C    0.994
    48   1 H    1.033 --     5 C    1.000
    49   1 H    1.050 --    10 C    0.988
    50   1 H    1.045 --    11 C    0.985
    51   1 H    1.018 --    15 O    0.939
    52   1 H    1.042 --    17 C    0.985
    53   1 H    1.049 --    18 C    0.988
    54   1 H    1.033 --    20 C    0.998
    55   1 H    1.039 --    21 C    0.999
    56   1 H    1.040 --    26 C    0.999
    57   1 H    1.032 --    27 C    0.998
    58   1 H    1.049 --    32 C    0.988
    59   1 H    1.044 --    33 C    0.985
    60   1 H    1.017 --    37 O    0.939
    61   1 H    1.043 --    39 C    0.985
    62   1 H    1.050 --    40 C    0.988
    63   1 H    1.035 --    42 C    0.999
    64   1 H    1.021 --    43 C    0.994
    65  30 Zn   2.427 --   109 N    0.568    71 N    0.567    86 N    0.562
                            93 N    0.561
    66   6 C    3.796 --   108 C    1.387    67 C    1.386   110 H    0.998
    67   6 C    3.943 --    66 C    1.386    71 N    1.283    68 C    1.199
    68   6 C    3.845 --    69 C    1.643    67 C    1.199   111 H    0.994
    69   6 C    3.832 --    68 C    1.643    70 C    1.205   112 H    1.000
    70   6 C    3.913 --    72 C    1.365    71 N    1.278    69 C    1.205
    71   7 N    2.997 --    67 C    1.283    70 C    1.278    65 Zn   0.567
    72   6 C    3.830 --    70 C    1.365    83 C    1.361    73 C    1.052
    73   6 C    3.899 --    74 C    1.422    82 C    1.422    72 C    1.052
    74   6 C    3.868 --    75 C    1.454    73 C    1.422   113 H    0.988
    75   6 C    3.915 --    74 C    1.454    76 C    1.417   114 H    0.985
    76   6 C    3.936 --    75 C    1.417    81 C    1.417    77 S    0.891
    77  16 S    5.800 --    78 O    1.896    80 O    1.889    79 O    1.078
                            76 C    0.891
    78   8 O    2.234 --    77 S    1.896    80 O    0.134    79 O    0.101
    79   8 O    2.282 --    77 S    1.078   115 H    0.939    78 O    0.101
    80   8 O    2.221 --    77 S    1.889    78 O    0.134
    81   6 C    3.913 --    82 C    1.454    76 C    1.417   116 H    0.985
    82   6 C    3.868 --    81 C    1.454    73 C    1.422   117 H    0.988
    83   6 C    3.900 --    72 C    1.361    86 N    1.271    84 C    1.215
    84   6 C    3.823 --    85 C    1.625    83 C    1.215   118 H    0.998
    85   6 C    3.828 --    84 C    1.625    87 C    1.224   119 H    0.998
    86   7 N    3.007 --    87 C    1.307    83 C    1.271    65 Zn   0.562
    87   6 C    3.922 --    86 N    1.307    88 C    1.304    85 C    1.224
    88   6 C    3.812 --    87 C    1.304    89 C    1.304   132 C    1.194
    89   6 C    3.922 --    93 N    1.307    88 C    1.304    90 C    1.224
    90   6 C    3.828 --    91 C    1.625    89 C    1.224   120 H    0.999
    91   6 C    3.823 --    90 C    1.625    92 C    1.216   121 H    0.998
    92   6 C    3.900 --    94 C    1.360    93 N    1.271    91 C    1.216
    93   7 N    3.007 --    89 C    1.307    92 C    1.271    65 Zn   0.561
    94   6 C    3.830 --   105 C    1.365    92 C    1.360    95 C    1.052
    95   6 C    3.898 --   104 C    1.423    96 C    1.421    94 C    1.052
    96   6 C    3.868 --    97 C    1.455    95 C    1.421   122 H    0.988
    97   6 C    3.914 --    96 C    1.455    98 C    1.417   123 H    0.985
    98   6 C    3.936 --   103 C    1.418    97 C    1.417    99 S    0.892
    99  16 S    5.799 --   100 O    1.892   102 O    1.891   101 O    1.078
                            98 C    0.892
   100   8 O    2.226 --    99 S    1.892   102 O    0.134
   101   8 O    2.281 --    99 S    1.078   124 H    0.939
   102   8 O    2.229 --    99 S    1.891   100 O    0.134
   103   6 C    3.913 --   104 C    1.454    98 C    1.418   125 H    0.985
   104   6 C    3.867 --   103 C    1.454    95 C    1.423   126 H    0.988
   105   6 C    3.913 --    94 C    1.365   109 N    1.278   106 C    1.205
   106   6 C    3.832 --   107 C    1.644   105 C    1.205   127 H    0.999
   107   6 C    3.845 --   106 C    1.644   108 C    1.199   128 H    0.994
   108   6 C    3.943 --    66 C    1.387   109 N    1.283   107 C    1.199
   109   7 N    2.996 --   108 C    1.283   105 C    1.278    65 Zn   0.568
   110   1 H    1.033 --    66 C    0.998
   111   1 H    1.021 --    68 C    0.994
   112   1 H    1.033 --    69 C    1.000
   113   1 H    1.049 --    74 C    0.988
   114   1 H    1.045 --    75 C    0.985
   115   1 H    1.018 --    79 O    0.939
   116   1 H    1.042 --    81 C    0.985
   117   1 H    1.049 --    82 C    0.988
   118   1 H    1.034 --    84 C    0.998
   119   1 H    1.040 --    85 C    0.998
   120   1 H    1.041 --    90 C    0.999
   121   1 H    1.032 --    91 C    0.998
   122   1 H    1.049 --    96 C    0.988
   123   1 H    1.043 --    97 C    0.985
   124   1 H    1.017 --   101 O    0.939
   125   1 H    1.044 --   103 C    0.985
   126   1 H    1.049 --   104 C    0.988
   127   1 H    1.035 --   106 C    0.999
   128   1 H    1.021 --   107 C    0.994
   129   6 C    3.753 --   130 C    2.626    24 C    1.192
   130   6 C    3.756 --   129 C    2.626   134 C    1.192
   131   6 C    3.755 --   132 C    2.624   156 C    1.194
   132   6 C    3.753 --   131 C    2.624    88 C    1.194
   133  30 Zn   2.420 --   154 N    0.564   161 N    0.564   139 N    0.564
                           177 N    0.563
   134   6 C    3.800 --   135 C    1.302   176 C    1.301   130 C    1.192
   135   6 C    3.926 --   139 N    1.308   134 C    1.302   136 C    1.225
   136   6 C    3.823 --   137 C    1.624   135 C    1.225   178 H    0.999
   137   6 C    3.826 --   136 C    1.624   138 C    1.217   179 H    0.999
   138   6 C    3.899 --   140 C    1.363   139 N    1.267   137 C    1.217
   139   7 N    2.998 --   135 C    1.308   138 C    1.267   133 Zn   0.564
   140   6 C    3.832 --   151 C    1.365   138 C    1.363   141 C    1.053
   141   6 C    3.899 --   142 C    1.423   150 C    1.422   140 C    1.053
   142   6 C    3.867 --   143 C    1.454   141 C    1.423   180 H    0.988
   143   6 C    3.912 --   142 C    1.454   144 C    1.418   181 H    0.985
   144   6 C    3.936 --   143 C    1.418   149 C    1.417   145 S    0.891
   145  16 S    5.802 --   146 O    1.897   148 O    1.888   147 O    1.080
                           144 C    0.891
   146   8 O    2.236 --   145 S    1.897   148 O    0.134   147 O    0.101
   147   8 O    2.283 --   145 S    1.080   182 H    0.939   146 O    0.101
   148   8 O    2.220 --   145 S    1.888   146 O    0.134
   149   6 C    3.915 --   150 C    1.454   144 C    1.417   183 H    0.985
   150   6 C    3.868 --   149 C    1.454   141 C    1.422   184 H    0.989
   151   6 C    3.899 --   140 C    1.365   154 N    1.265   152 C    1.217
   152   6 C    3.826 --   153 C    1.624   151 C    1.217   185 H    0.999
   153   6 C    3.824 --   152 C    1.624   155 C    1.224   186 H    0.999
   154   7 N    3.000 --   155 C    1.310   151 C    1.265   133 Zn   0.564
   155   6 C    3.925 --   154 N    1.310   156 C    1.301   153 C    1.224
   156   6 C    3.800 --   157 C    1.301   155 C    1.301   131 C    1.194
   157   6 C    3.925 --   161 N    1.310   156 C    1.301   158 C    1.224
   158   6 C    3.824 --   159 C    1.624   157 C    1.224   187 H    0.999
   159   6 C    3.828 --   158 C    1.624   160 C    1.217   188 H    0.999
   160   6 C    3.899 --   162 C    1.366   161 N    1.265   159 C    1.217
   161   7 N    2.999 --   157 C    1.310   160 C    1.265   133 Zn   0.564
   162   6 C    3.832 --   160 C    1.366   173 C    1.363   163 C    1.052
   163   6 C    3.899 --   164 C    1.423   172 C    1.422   162 C    1.052
   164   6 C    3.867 --   165 C    1.454   163 C    1.423   189 H    0.988
   165   6 C    3.912 --   164 C    1.454   166 C    1.418   190 H    0.985
   166   6 C    3.936 --   165 C    1.418   171 C    1.417   167 S    0.891
   167  16 S    5.801 --   168 O    1.897   170 O    1.888   169 O    1.080
                           166 C    0.891
   168   8 O    2.235 --   167 S    1.897   170 O    0.134   169 O    0.101
   169   8 O    2.282 --   167 S    1.080   191 H    0.940   168 O    0.101
   170   8 O    2.220 --   167 S    1.888   168 O    0.134
   171   6 C    3.915 --   172 C    1.454   166 C    1.417   192 H    0.985
   172   6 C    3.868 --   171 C    1.454   163 C    1.422   193 H    0.989
   173   6 C    3.899 --   162 C    1.363   177 N    1.267   174 C    1.217
   174   6 C    3.826 --   175 C    1.623   173 C    1.217   194 H    0.999
   175   6 C    3.823 --   174 C    1.623   176 C    1.225   195 H    0.999
   176   6 C    3.925 --   177 N    1.308   134 C    1.301   175 C    1.225
   177   7 N    2.998 --   176 C    1.308   173 C    1.267   133 Zn   0.563
   178   1 H    1.039 --   136 C    0.999
   179   1 H    1.033 --   137 C    0.999
   180   1 H    1.049 --   142 C    0.988
   181   1 H    1.041 --   143 C    0.985
   182   1 H    1.018 --   147 O    0.939
   183   1 H    1.045 --   149 C    0.985
   184   1 H    1.050 --   150 C    0.989
   185   1 H    1.035 --   152 C    0.999
   186   1 H    1.040 --   153 C    0.999
   187   1 H    1.040 --   158 C    0.999
   188   1 H    1.035 --   159 C    0.999
   189   1 H    1.048 --   164 C    0.988
   190   1 H    1.041 --   165 C    0.985
   191   1 H    1.019 --   169 O    0.940
   192   1 H    1.046 --   171 C    0.985
   193   1 H    1.050 --   172 C    0.989
   194   1 H    1.034 --   174 C    0.999
   195   1 H    1.039 --   175 C    0.999
 ---------------------------------------------------------------------------

Topologies differ in total number of bonds
Writing topology from bond orders to xtbtopo.mol

 dipole moment from electron density (au)
     X       Y       Z   
 -90.6517  -1.5203  -0.1481  total (Debye):  230.446


           -------------------------------------------------
          | TOTAL ENERGY             -428.248077868861 Eh   |
          | GRADIENT NORM               0.097248914184 Eh/α |
          | HOMO-LUMO GAP               0.151304823753 eV   |
           -------------------------------------------------
########################################################################
[WARNING] Runtime exception occurred
-1- restart_readRestart: Dimension missmatch in restart file.
########################################################################

------------------------------------------------------------------------
 * finished run on 2022/07/30 at 15:40:26.385     
------------------------------------------------------------------------
 total:
 * wall-time:     0 d,  0 h,  0 min, 14.943 sec
 *  cpu-time:     0 d,  0 h,  0 min, 14.864 sec
 * ratio c/w:     0.995 speedup
 SCF:
 * wall-time:     0 d,  0 h,  0 min, 14.417 sec
 *  cpu-time:     0 d,  0 h,  0 min, 14.344 sec
 * ratio c/w:     0.995 speedup

