      -----------------------------------------------------------      
     |                   =====================                   |     
     |                           x T B                           |     
     |                   =====================                   |     
     |                         S. Grimme                         |     
     |          Mulliken Center for Theoretical Chemistry        |     
     |                    University of Bonn                     |     
      -----------------------------------------------------------      

   * xtb version 6.5.1 (b24c23e) compiled by 'conda@728c89f4b128' on 2022-07-12

   xtb is free software: you can redistribute it and/or modify it under
   the terms of the GNU Lesser General Public License as published by
   the Free Software Foundation, either version 3 of the License, or
   (at your option) any later version.
   
   xtb is distributed in the hope that it will be useful,
   but WITHOUT ANY WARRANTY; without even the implied warranty of
   MERCHANTABILITY or FITNESS FOR A PARTICULAR PURPOSE.  See the
   GNU Lesser General Public License for more details.
   
   Cite this work as:
   * C. Bannwarth, E. Caldeweyher, S. Ehlert, A. Hansen, P. Pracht,
     J. Seibert, S. Spicher, S. Grimme, WIREs Comput. Mol. Sci., 2020, 11,
     e01493. DOI: 10.1002/wcms.1493
   
   for GFN2-xTB:
   * C. Bannwarth, S. Ehlert and S. Grimme., J. Chem. Theory Comput., 2019,
     15, 1652-1671. DOI: 10.1021/acs.jctc.8b01176
   for GFN1-xTB:
   * S. Grimme, C. Bannwarth, P. Shushkov, J. Chem. Theory Comput., 2017,
     13, 1989-2009. DOI: 10.1021/acs.jctc.7b00118
   for GFN0-xTB:
   * P. Pracht, E. Caldeweyher, S. Ehlert, S. Grimme, ChemRxiv, 2019, preprint.
     DOI: 10.26434/chemrxiv.8326202.v1
   for GFN-FF:
   * S. Spicher and S. Grimme, Angew. Chem. Int. Ed., 2020, 59, 15665-15673.
     DOI: 10.1002/anie.202004239
   
   for ALPB and GBSA implicit solvation:
   * S. Ehlert, M. Stahn, S. Spicher, S. Grimme, J. Chem. Theory Comput.,
     2021, 17, 4250-4261. DOI: 10.1021/acs.jctc.1c00471
   
   for DFT-D4:
   * E. Caldeweyher, C. Bannwarth and S. Grimme, J. Chem. Phys., 2017,
     147, 034112. DOI: 10.1063/1.4993215
   * E. Caldeweyher, S. Ehlert, A. Hansen, H. Neugebauer, S. Spicher,
     C. Bannwarth and S. Grimme, J. Chem. Phys., 2019, 150, 154122.
     DOI: 10.1063/1.5090222
   * E. Caldeweyher, J.-M. Mewes, S. Ehlert and S. Grimme, Phys. Chem. Chem. Phys.
     2020, 22, 8499-8512. DOI: 10.1039/D0CP00502A
   
   for sTDA-xTB:
   * S. Grimme and C. Bannwarth, J. Chem. Phys., 2016, 145, 054103.
     DOI: 10.1063/1.4959605
   
   in the mass-spec context:
   * V. Asgeirsson, C. Bauer and S. Grimme, Chem. Sci., 2017, 8, 4879.
     DOI: 10.1039/c7sc00601b
   * J. Koopman and S. Grimme, ACS Omega 2019, 4, 12, 15120-15133.
     DOI: 10.1021/acsomega.9b02011
   
   for metadynamics refer to:
   * S. Grimme, J. Chem. Theory Comput., 2019, 155, 2847-2862
     DOI: 10.1021/acs.jctc.9b00143
   
   for SPH calculations refer to:
   * S. Spicher and S. Grimme, J. Chem. Theory Comput., 2021, 17, 1701-1714
     DOI: 10.1021/acs.jctc.0c01306
   
   with help from (in alphabetical order)
   P. Atkinson, C. Bannwarth, F. Bohle, G. Brandenburg, E. Caldeweyher
   M. Checinski, S. Dohm, S. Ehlert, S. Ehrlich, I. Gerasimov, C. Hölzer
   A. Katbashev, J. Koopman, C. Lavigne, S. Lehtola, F. März, M. Müller,
   F. Musil, H. Neugebauer, J. Pisarek, C. Plett, P. Pracht, F. Pultar,
   J. Seibert, P. Shushkov, S. Spicher, M. Stahn, M. Steiner, T. Strunk,
   J. Stückrath, T. Rose, and J. Unsleber
   
 * started run on 2022/07/30 at 10:02:08.718     

           -------------------------------------------------
          |                Calculation Setup                |
           -------------------------------------------------

          program call               : xtb Zn_Ph3Me_C2_3.xyz --gfn 1 --opt -T 48
          hostname                   : cx3-15-15.cx3.hpc.ic.ac.uk
          coordinate file            : Zn_Ph3Me_C2_3.xyz
          omp threads                :                     1

   ID    Z sym.   atoms
    1   30 Zn     1, 75, 153
    2    6 C      2-6, 8-20, 22-27, 29-42, 76-80, 82-94, 96-101, 103-116,
                  149-152, 154-158, 160-172, 174-179, 181-194
    3    7 N      7, 21, 28, 43, 81, 95, 102, 117, 159, 173, 180, 195
    4    1 H      44-74, 118-148, 196-225
########################################################################
[WARNING] Please study the warnings concerning your input carefully
-1- prog_main_parseArguments: Unknown option '-T' provided
########################################################################

           -------------------------------------------------
          |                 G F N 1 - x T B                 |
           -------------------------------------------------

        Reference                      10.1021/acs.jctc.7b00118
      * Hamiltonian:
        H0-scaling (s, p, d)           1.850000    2.250000    2.000000
        zeta-weighting                 0.000000
      * Dispersion:
        s8                             2.400000
        a1                             0.630000
        a2                             5.000000
        s9                             0.000000
      * Repulsion:
        kExp                           1.500000
        rExp                           1.000000
      * Coulomb:
        alpha                          2.000000
        third order                    atomic
        anisotropic                    false
      * Halogen bond correction:
        rad-scale                      1.300000
        damping                        0.440000


          ...................................................
          :                      SETUP                      :
          :.................................................:
          :  # basis functions                 716          :
          :  # atomic orbitals                 716          :
          :  # shells                          450          :
          :  # electrons                       630          :
          :  # halogen bonds                     0          :
          :  max. iterations                   250          :
          :  Hamiltonian                  GFN1-xTB          :
          :  restarted?                      false          :
          :  GBSA solvation                  false          :
          :  PC potential                    false          :
          :  electronic temp.          300.0000000     K    :
          :  accuracy                    1.0000000          :
          :  -> integral cutoff          0.2500000E+02      :
          :  -> integral neglect         0.1000000E-07      :
          :  -> SCF convergence          0.1000000E-05 Eh   :
          :  -> wf. convergence          0.2000000E-04 e    :
          :  Broyden damping             0.4000000          :
          ...................................................

 iter      E             dE          RMSdq      gap      omega  full diag
   1   -344.2708557 -0.344271E+03  0.988E+00    1.21       0.0  T
   2   -344.6460575 -0.375202E+00  0.594E+00    1.18       1.0  T
   3   -344.2469083  0.399149E+00  0.119E+00    0.99       1.0  T
   4   -344.6264270 -0.379519E+00  0.420E-01    1.29       1.0  T
   5   -344.6963972 -0.699702E-01  0.134E-01    1.14       1.0  T
   6   -344.7025620 -0.616474E-02  0.686E-02    1.19       1.0  T
   7   -344.7056107 -0.304875E-02  0.107E-02    1.18       1.0  T
   8   -344.7056670 -0.562511E-04  0.331E-03    1.18       2.0  T
   9   -344.7056723 -0.531102E-05  0.169E-03    1.18       4.0  T
  10   -344.7056735 -0.118866E-05  0.672E-04    1.18       9.9  T
  11   -344.7056736 -0.125417E-06  0.350E-04    1.18      19.0  T
  12   -344.7056736 -0.441368E-07  0.147E-04    1.18      45.4  T
  13   -344.7056736 -0.929640E-08  0.708E-05    1.18      94.2  T

   *** convergence criteria satisfied after 13 iterations ***

         #    Occupation            Energy/Eh            Energy/eV
      -------------------------------------------------------------
         1        2.0000           -0.7603313             -20.6897
       ...           ...                  ...                  ...
       309        2.0000           -0.3928414             -10.6898
       310        2.0000           -0.3922989             -10.6750
       311        2.0000           -0.3902816             -10.6201
       312        2.0000           -0.3902144             -10.6183
       313        2.0000           -0.3798667             -10.3367
       314        2.0000           -0.3774562             -10.2711
       315        2.0000           -0.3705606             -10.0835 (HOMO)
       316                         -0.3272939              -8.9061 (LUMO)
       317                         -0.3231681              -8.7939
       318                         -0.3209362              -8.7331
       319                         -0.3176165              -8.6428
       320                         -0.3163908              -8.6094
       ...                                ...                  ...
       716                          1.5428917              41.9842
      -------------------------------------------------------------
                  HL-Gap            0.0432667 Eh            1.1773 eV
             Fermi-level           -0.3489337 Eh           -9.4950 eV

 SCC (total)                   0 d,  0 h,  0 min,  2.848 sec
 SCC setup                      ...        0 min,  0.014 sec (  0.507%)
 Dispersion                     ...        0 min,  0.009 sec (  0.324%)
 classical contributions        ...        0 min,  0.003 sec (  0.122%)
 integral evaluation            ...        0 min,  0.244 sec (  8.583%)
 iterations                     ...        0 min,  1.905 sec ( 66.882%)
 molecular gradient             ...        0 min,  0.641 sec ( 22.514%)
 printout                       ...        0 min,  0.030 sec (  1.068%)

         :::::::::::::::::::::::::::::::::::::::::::::::::::::
         ::                     SUMMARY                     ::
         :::::::::::::::::::::::::::::::::::::::::::::::::::::
         :: total energy            -339.385600698381 Eh    ::
         :: gradient norm              0.676803500023 Eh/a0 ::
         :: HOMO-LUMO gap              1.177346817598 eV    ::
         ::.................................................::
         :: SCC energy              -344.705673637745 Eh    ::
         :: -> electrostatic           0.207299230212 Eh    ::
         :: repulsion energy           5.523900264061 Eh    ::
         :: dispersion energy         -0.203827324697 Eh    ::
         :: halogen bond corr.         0.000000000000 Eh    ::
         :: add. restraining           0.000000000000 Eh    ::
         :: total charge              -0.000000000003 e     ::
         :::::::::::::::::::::::::::::::::::::::::::::::::::::

      ----------------------------------------------------------- 
     |                   =====================                   |
     |                        A N C O P T                        |
     |                   =====================                   |
     |               Approximate Normal Coordinate               |
     |                Rational Function Optimizer                |
      ----------------------------------------------------------- 

          ...................................................
          :                      SETUP                      :
          :.................................................:
          :   optimization level            normal          :
          :   max. optcycles                   675          :
          :   ANC micro-cycles                  20          :
          :   degrees of freedom               669          :
          :.................................................:
          :   RF solver                   davidson          :
          :   write xtbopt.log                true          :
          :   linear?                        false          :
          :   energy convergence         0.5000000E-05 Eh   :
          :   grad. convergence          0.1000000E-02 Eh/α :
          :   maximium RF displ.         1.0000000          :
          :   Hlow (freq-cutoff)         0.1000000E-01      :
          :   Hmax (freq-cutoff)         5.0000000          :
          :   S6 in model hess.         20.0000000          :
          ...................................................

generating ANC from model Hessian ...
Using Lindh-Hessian (1995)
 Shifting diagonal of input Hessian by    1.0021700574396403E-002
 Lowest  eigenvalues of input Hessian
    0.010000    0.010005    0.010012    0.010014    0.010015    0.010019
    0.000000    0.000000    0.000000    0.000000    0.000000    0.000000
    0.010054    0.010069    0.010075    0.010130    0.010133    0.010197
 Highest eigenvalues
    2.102298    2.102299    2.133256    2.201912    2.801441    2.933679


........................................................................
.............................. CYCLE    1 ..............................
........................................................................
   1   -344.7056736 -0.344706E+03  0.229E-05    1.18       0.0  T
   2   -344.7056736  0.625278E-12  0.192E-05    1.18     347.3  T
   3   -344.7056736 -0.171894E-09  0.753E-06    1.18     885.5  T
     SCC iter.                  ...        0 min,  0.445 sec
     gradient                   ...        0 min,  0.645 sec
 * total energy  :  -339.3856007 Eh     change       -0.2039656E-08 Eh
   gradient norm :     0.6768037 Eh/α   predicted     0.0000000E+00 (-100.00%)
   displ. norm   :     0.5265843 α      lambda       -0.2835252E+00
   maximum displ.:     0.1733975 α      in ANC's #558, #326, #306, ...

........................................................................
.............................. CYCLE    2 ..............................
........................................................................
   1   -344.8058589 -0.344806E+03  0.138E-01    1.21       0.0  T
   2   -344.8096052 -0.374626E-02  0.903E-02    1.22       1.0  T
   3   -344.8116543 -0.204910E-02  0.286E-02    1.23       1.0  T
   4   -344.8115801  0.741601E-04  0.263E-02    1.22       1.0  T
   5   -344.8117621 -0.181965E-03  0.807E-03    1.23       1.0  T
   6   -344.8118018 -0.396834E-04  0.191E-03    1.22       3.5  T
   7   -344.8118043 -0.255660E-05  0.765E-04    1.22       8.7  T
   8   -344.8118046 -0.276501E-06  0.311E-04    1.22      21.4  T
   9   -344.8118046 -0.456937E-07  0.151E-04    1.22      44.0  T
  10   -344.8118047 -0.160449E-07  0.407E-05    1.22     163.7  T
     SCC iter.                  ...        0 min,  1.472 sec
     gradient                   ...        0 min,  0.647 sec
 * total energy  :  -339.6004144 Eh     change       -0.2148137E+00 Eh
   gradient norm :     0.3495878 Eh/α   predicted    -0.1811587E+00 ( -15.67%)
   displ. norm   :     0.6079940 α      lambda       -0.1678706E+00
   maximum displ.:     0.1614451 α      in ANC's #326, #172, #558, ...

........................................................................
.............................. CYCLE    3 ..............................
........................................................................
   1   -344.9128864 -0.344913E+03  0.148E-01    1.20       0.0  T
   2   -344.9165168 -0.363035E-02  0.888E-02    1.19       1.0  T
   3   -344.9186272 -0.211049E-02  0.335E-02    1.20       1.0  T
   4   -344.9186148  0.124570E-04  0.319E-02    1.19       1.0  T
   5   -344.9190154 -0.400634E-03  0.924E-03    1.20       1.0  T
   6   -344.9190617 -0.462322E-04  0.266E-03    1.20       2.5  T
   7   -344.9190672 -0.555036E-05  0.112E-03    1.20       6.0  T
   8   -344.9190682 -0.100717E-05  0.409E-04    1.20      16.3  T
   9   -344.9190683 -0.819425E-07  0.167E-04    1.20      40.0  T
  10   -344.9190683 -0.166419E-07  0.552E-05    1.20     120.7  T
     SCC iter.                  ...        0 min,  1.472 sec
     gradient                   ...        0 min,  0.644 sec
 * total energy  :  -339.7240655 Eh     change       -0.1236511E+00 Eh
   gradient norm :     0.1462405 Eh/α   predicted    -0.1149626E+00 (  -7.03%)
   displ. norm   :     0.6443493 α      lambda       -0.7095894E-01
   maximum displ.:     0.2178388 α      in ANC's #172, #50, #326, ...

........................................................................
.............................. CYCLE    4 ..............................
........................................................................
   1   -344.9723248 -0.344972E+03  0.975E-02    1.14       0.0  T
   2   -344.9731595 -0.834632E-03  0.713E-02    1.14       1.0  T
   3   -344.9744585 -0.129901E-02  0.245E-02    1.15       1.0  T
   4   -344.9743060  0.152451E-03  0.276E-02    1.14       1.0  T
   5   -344.9746587 -0.352721E-03  0.701E-03    1.15       1.0  T
   6   -344.9746806 -0.218251E-04  0.186E-03    1.15       3.6  T
   7   -344.9746831 -0.257515E-05  0.775E-04    1.15       8.6  T
   8   -344.9746837 -0.545726E-06  0.301E-04    1.15      22.2  T
   9   -344.9746837 -0.581688E-07  0.110E-04    1.15      60.4  T
  10   -344.9746837 -0.507151E-08  0.539E-05    1.15     123.6  T
     SCC iter.                  ...        0 min,  1.477 sec
     gradient                   ...        0 min,  0.643 sec
 * total energy  :  -339.7702788 Eh     change       -0.4621328E-01 Eh
   gradient norm :     0.0630819 Eh/α   predicted    -0.5021014E-01 (   8.65%)
   displ. norm   :     0.6008885 α      lambda       -0.2254212E-01
   maximum displ.:     0.3136337 α      in ANC's #50, #26, #172, ...

........................................................................
.............................. CYCLE    5 ..............................
........................................................................
   1   -345.0047015 -0.345005E+03  0.282E-02    1.15       0.0  T
   2   -345.0047101 -0.857089E-05  0.211E-02    1.15       1.0  T
   3   -345.0049011 -0.190994E-03  0.726E-03    1.15       1.0  T
   4   -345.0049227 -0.216071E-04  0.717E-03    1.15       1.0  T
   5   -345.0049451 -0.224231E-04  0.166E-03    1.15       4.0  T
   6   -345.0049456 -0.441079E-06  0.471E-04    1.15      14.2  T
   7   -345.0049457 -0.122534E-06  0.209E-04    1.15      31.9  T
   8   -345.0049457 -0.233655E-07  0.105E-04    1.15      63.6  T
   9   -345.0049457 -0.703648E-08  0.447E-05    1.15     149.3  T
     SCC iter.                  ...        0 min,  1.327 sec
     gradient                   ...        0 min,  0.637 sec
 * total energy  :  -339.7878885 Eh     change       -0.1760963E-01 Eh
   gradient norm :     0.0396235 Eh/α   predicted    -0.1534070E-01 ( -12.88%)
   displ. norm   :     0.6865787 α      lambda       -0.1547271E-01
   maximum displ.:     0.4337911 α      in ANC's #50, #26, #99, ...

........................................................................
.............................. CYCLE    6 ..............................
........................................................................
   1   -345.0339645 -0.345034E+03  0.219E-02    1.16       0.0  T
   2   -345.0339995 -0.349710E-04  0.145E-02    1.16       1.0  T
   3   -345.0340920 -0.925650E-04  0.658E-03    1.16       1.0  T
   4   -345.0341182 -0.261937E-04  0.503E-03    1.16       1.3  T
   5   -345.0341281 -0.992065E-05  0.117E-03    1.16       5.7  T
   6   -345.0341285 -0.360537E-06  0.386E-04    1.16      17.3  T
   7   -345.0341286 -0.981781E-07  0.199E-04    1.16      33.5  T
   8   -345.0341286 -0.308155E-07  0.754E-05    1.16      88.4  T
     SCC iter.                  ...        0 min,  1.180 sec
     gradient                   ...        0 min,  0.635 sec
 * total energy  :  -339.7996433 Eh     change       -0.1175483E-01 Eh
   gradient norm :     0.0280570 Eh/α   predicted    -0.1138325E-01 (  -3.16%)
   displ. norm   :     0.7310114 α      lambda       -0.9739885E-02
   maximum displ.:     0.5046290 α      in ANC's #50, #26, #66, ...

........................................................................
.............................. CYCLE    7 ..............................
........................................................................
   1   -345.0596189 -0.345060E+03  0.133E-02    1.16       0.0  T
   2   -345.0596287 -0.985926E-05  0.803E-03    1.16       1.0  T
   3   -345.0596438 -0.150877E-04  0.394E-03    1.16       1.7  T
   4   -345.0596529 -0.911718E-05  0.351E-03    1.16       1.9  T
   5   -345.0596581 -0.512966E-05  0.676E-04    1.16       9.9  T
   6   -345.0596582 -0.147619E-06  0.329E-04    1.16      20.3  T
   7   -345.0596583 -0.119384E-06  0.796E-05    1.16      83.7  T
   8   -345.0596583 -0.450990E-08  0.324E-05    1.16     205.7  T
     SCC iter.                  ...        0 min,  1.178 sec
     gradient                   ...        0 min,  0.633 sec
 * total energy  :  -339.8078179 Eh     change       -0.8174603E-02 Eh
   gradient norm :     0.0233112 Eh/α   predicted    -0.7472344E-02 (  -8.59%)
   displ. norm   :     0.7866848 α      lambda       -0.8314858E-02
   maximum displ.:     0.5473676 α      in ANC's #50, #26, #13, ...

........................................................................
.............................. CYCLE    8 ..............................
........................................................................
   1   -345.0911697 -0.345091E+03  0.105E-02    1.15       0.0  T
   2   -345.0911770 -0.723033E-05  0.638E-03    1.15       1.0  T
   3   -345.0911812 -0.421885E-05  0.377E-03    1.15       1.8  T
   4   -345.0911835 -0.228321E-05  0.259E-03    1.15       2.6  T
   5   -345.0911871 -0.362283E-05  0.773E-04    1.15       8.6  T
   6   -345.0911874 -0.316852E-06  0.237E-04    1.15      28.2  T
   7   -345.0911875 -0.586118E-07  0.681E-05    1.15      97.9  T
   8   -345.0911875 -0.423353E-08  0.175E-05    1.15     381.4  T
     SCC iter.                  ...        0 min,  1.182 sec
     gradient                   ...        0 min,  0.648 sec
 * total energy  :  -339.8149211 Eh     change       -0.7103233E-02 Eh
   gradient norm :     0.0168151 Eh/α   predicted    -0.6730435E-02 (  -5.25%)
   displ. norm   :     0.7959650 α      lambda       -0.6723978E-02
   maximum displ.:     0.5222207 α      in ANC's #50, #26, #13, ...

........................................................................
.............................. CYCLE    9 ..............................
........................................................................
   1   -345.1217056 -0.345122E+03  0.111E-02    1.15       0.0  T
   2   -345.1217146 -0.900157E-05  0.777E-03    1.15       1.0  T
   3   -345.1217281 -0.135317E-04  0.376E-03    1.15       1.8  T
   4   -345.1217270  0.111419E-05  0.275E-03    1.15       2.4  T
   5   -345.1217317 -0.471618E-05  0.852E-04    1.15       7.8  T
   6   -345.1217321 -0.367247E-06  0.262E-04    1.15      25.4  T
   7   -345.1217322 -0.648834E-07  0.813E-05    1.15      82.0  T
   8   -345.1217322 -0.632554E-08  0.258E-05    1.15     258.7  T
     SCC iter.                  ...        0 min,  1.181 sec
     gradient                   ...        0 min,  0.645 sec
 * total energy  :  -339.8204482 Eh     change       -0.5527121E-02 Eh
   gradient norm :     0.0118302 Eh/α   predicted    -0.5492013E-02 (  -0.64%)
   displ. norm   :     0.7791152 α      lambda       -0.4972515E-02
   maximum displ.:     0.4708826 α      in ANC's #50, #26, #13, ...

........................................................................
.............................. CYCLE   10 ..............................
........................................................................
   1   -345.1466095 -0.345147E+03  0.831E-03    1.14       0.0  T
   2   -345.1466156 -0.607421E-05  0.525E-03    1.14       1.3  T
   3   -345.1466165 -0.890618E-06  0.303E-03    1.14       2.2  T
   4   -345.1466150  0.151553E-05  0.217E-03    1.14       3.1  T
   5   -345.1466182 -0.321506E-05  0.550E-04    1.14      12.1  T
   6   -345.1466184 -0.220736E-06  0.206E-04    1.14      32.3  T
   7   -345.1466185 -0.457810E-07  0.550E-05    1.14     121.2  T
   8   -345.1466185 -0.271575E-08  0.168E-05    1.14     397.2  T
     SCC iter.                  ...        0 min,  1.176 sec
     gradient                   ...        0 min,  0.641 sec
 * total energy  :  -339.8244420 Eh     change       -0.3993809E-02 Eh
   gradient norm :     0.0143849 Eh/α   predicted    -0.3995467E-02 (   0.04%)
   displ. norm   :     0.7343877 α      lambda       -0.3570086E-02
   maximum displ.:     0.4524209 α      in ANC's #26, #50, #13, ...

........................................................................
.............................. CYCLE   11 ..............................
........................................................................
   1   -345.1674362 -0.345167E+03  0.664E-03    1.14       0.0  T
   2   -345.1674421 -0.589617E-05  0.408E-03    1.14       1.6  T
   3   -345.1674440 -0.194058E-05  0.204E-03    1.14       3.3  T
   4   -345.1674425  0.145004E-05  0.165E-03    1.14       4.0  T
   5   -345.1674443 -0.173094E-05  0.620E-04    1.14      10.8  T
   6   -345.1674446 -0.355907E-06  0.157E-04    1.14      42.6  T
   7   -345.1674447 -0.202776E-07  0.443E-05    1.14     150.6  T
     SCC iter.                  ...        0 min,  1.030 sec
     gradient                   ...        0 min,  0.651 sec
 * total energy  :  -339.8274205 Eh     change       -0.2978458E-02 Eh
   gradient norm :     0.0116156 Eh/α   predicted    -0.2747763E-02 (  -7.75%)
   displ. norm   :     0.7055185 α      lambda       -0.2763323E-02
   maximum displ.:     0.4701402 α      in ANC's #26, #50, #13, ...

........................................................................
.............................. CYCLE   12 ..............................
........................................................................
   1   -345.1819524 -0.345182E+03  0.496E-03    1.14       0.0  T
   2   -345.1819546 -0.224359E-05  0.337E-03    1.14       2.0  T
   3   -345.1819574 -0.275691E-05  0.153E-03    1.14       4.4  T
   4   -345.1819573  0.541556E-07  0.132E-03    1.14       5.1  T
   5   -345.1819580 -0.722782E-06  0.383E-04    1.14      17.4  T
   6   -345.1819581 -0.111379E-06  0.968E-05    1.14      68.8  T
   7   -345.1819581 -0.621009E-08  0.396E-05    1.14     168.4  T
     SCC iter.                  ...        0 min,  1.033 sec
     gradient                   ...        0 min,  0.641 sec
 * total energy  :  -339.8298021 Eh     change       -0.2381617E-02 Eh
   gradient norm :     0.0096323 Eh/α   predicted    -0.2069394E-02 ( -13.11%)
   displ. norm   :     0.6873866 α      lambda       -0.2357448E-02
   maximum displ.:     0.4737965 α      in ANC's #26, #13, #32, ...

........................................................................
.............................. CYCLE   13 ..............................
........................................................................
   1   -345.1926486 -0.345193E+03  0.495E-03    1.14       0.0  T
   2   -345.1926502 -0.159446E-05  0.403E-03    1.14       1.7  T
   3   -345.1926552 -0.497095E-05  0.143E-03    1.14       4.7  T
   4   -345.1926544  0.715425E-06  0.148E-03    1.14       4.5  T
   5   -345.1926555 -0.106632E-05  0.348E-04    1.14      19.1  T
   6   -345.1926556 -0.749504E-07  0.101E-04    1.14      66.1  T
   7   -345.1926556 -0.656405E-08  0.387E-05    1.14     172.4  T
     SCC iter.                  ...        0 min,  1.030 sec
     gradient                   ...        0 min,  0.650 sec
 * total energy  :  -339.8318115 Eh     change       -0.2009363E-02 Eh
   gradient norm :     0.0090071 Eh/α   predicted    -0.1735674E-02 ( -13.62%)
   displ. norm   :     0.7007626 α      lambda       -0.2161119E-02
   maximum displ.:     0.4839147 α      in ANC's #26, #13, #32, ...

........................................................................
.............................. CYCLE   14 ..............................
........................................................................
   1   -345.2008288 -0.345201E+03  0.474E-03    1.14       0.0  T
   2   -345.2008314 -0.254882E-05  0.383E-03    1.14       1.7  T
   3   -345.2008356 -0.427498E-05  0.139E-03    1.14       4.8  T
   4   -345.2008347  0.964202E-06  0.149E-03    1.14       4.5  T
   5   -345.2008359 -0.120594E-05  0.553E-04    1.14      12.1  T
   6   -345.2008361 -0.198593E-06  0.142E-04    1.14      47.1  T
   7   -345.2008361 -0.163085E-07  0.441E-05    1.14     151.0  T
     SCC iter.                  ...        0 min,  1.033 sec
     gradient                   ...        0 min,  0.655 sec
 * total energy  :  -339.8336326 Eh     change       -0.1821142E-02 Eh
   gradient norm :     0.0094835 Eh/α   predicted    -0.1611192E-02 ( -11.53%)
   displ. norm   :     0.7090744 α      lambda       -0.1881626E-02
   maximum displ.:     0.4862801 α      in ANC's #26, #13, #32, ...

........................................................................
.............................. CYCLE   15 ..............................
........................................................................
   1   -345.2062001 -0.345206E+03  0.378E-03    1.14       0.0  T
   2   -345.2062017 -0.164062E-05  0.271E-03    1.14       2.5  T
   3   -345.2062038 -0.209793E-05  0.910E-04    1.14       7.3  T
   4   -345.2062037  0.154914E-06  0.872E-04    1.14       7.6  T
   5   -345.2062040 -0.300698E-06  0.360E-04    1.14      18.5  T
   6   -345.2062040 -0.755974E-07  0.102E-04    1.14      65.4  T
   7   -345.2062040 -0.112692E-07  0.313E-05    1.14     213.2  T
     SCC iter.                  ...        0 min,  1.033 sec
     gradient                   ...        0 min,  0.654 sec
 * total energy  :  -339.8352884 Eh     change       -0.1655759E-02 Eh
   gradient norm :     0.0080146 Eh/α   predicted    -0.1413844E-02 ( -14.61%)
   displ. norm   :     0.7276497 α      lambda       -0.1725914E-02
   maximum displ.:     0.4922862 α      in ANC's #26, #13, #32, ...

........................................................................
.............................. CYCLE   16 ..............................
........................................................................
   1   -345.2104116 -0.345210E+03  0.299E-03    1.14       0.0  T
   2   -345.2104130 -0.138997E-05  0.181E-03    1.14       3.7  T
   3   -345.2104137 -0.708596E-06  0.851E-04    1.14       7.8  T
   4   -345.2104135  0.178412E-06  0.796E-04    1.14       8.4  T
   5   -345.2104139 -0.396493E-06  0.298E-04    1.14      22.4  T
   6   -345.2104140 -0.623214E-07  0.665E-05    1.14     100.2  T
   7   -345.2104140 -0.332079E-08  0.259E-05    1.14     257.2  T
     SCC iter.                  ...        0 min,  1.033 sec
     gradient                   ...        0 min,  0.650 sec
 * total energy  :  -339.8367797 Eh     change       -0.1491341E-02 Eh
   gradient norm :     0.0075583 Eh/α   predicted    -0.1319872E-02 ( -11.50%)
   displ. norm   :     0.7512380 α      lambda       -0.1547596E-02
   maximum displ.:     0.5012926 α      in ANC's #26, #13, #32, ...

........................................................................
.............................. CYCLE   17 ..............................
........................................................................
   1   -345.2140350 -0.345214E+03  0.314E-03    1.13       0.0  T
   2   -345.2140362 -0.118346E-05  0.212E-03    1.13       3.1  T
   3   -345.2140376 -0.139244E-05  0.867E-04    1.13       7.7  T
   4   -345.2140376 -0.402099E-07  0.632E-04    1.13      10.5  T
   5   -345.2140378 -0.150308E-06  0.260E-04    1.13      25.7  T
   6   -345.2140378 -0.403800E-07  0.750E-05    1.13      88.9  T
   7   -345.2140378 -0.485431E-08  0.284E-05    1.13     234.4  T
     SCC iter.                  ...        0 min,  1.034 sec
     gradient                   ...        0 min,  0.648 sec
 * total energy  :  -339.8380897 Eh     change       -0.1310004E-02 Eh
   gradient norm :     0.0060429 Eh/α   predicted    -0.1210501E-02 (  -7.60%)
   displ. norm   :     0.7410442 α      lambda       -0.1196533E-02
   maximum displ.:     0.4922661 α      in ANC's #26, #13, #32, ...

........................................................................
.............................. CYCLE   18 ..............................
........................................................................
   1   -345.2159611 -0.345216E+03  0.212E-03    1.13       0.0  T
   2   -345.2159616 -0.457220E-06  0.127E-03    1.13       5.3  T
   3   -345.2159619 -0.305050E-06  0.783E-04    1.13       8.5  T
   4   -345.2159619 -0.823235E-08  0.384E-04    1.13      17.4  T
   5   -345.2159620 -0.781095E-07  0.161E-04    1.13      41.4  T
   6   -345.2159620 -0.193896E-07  0.374E-05    1.13     178.2  T
     SCC iter.                  ...        0 min,  0.888 sec
     gradient                   ...        0 min,  0.646 sec
 * total energy  :  -339.8391095 Eh     change       -0.1019748E-02 Eh
   gradient norm :     0.0046190 Eh/α   predicted    -0.9268091E-03 (  -9.11%)
   displ. norm   :     0.7151860 α      lambda       -0.9015606E-03
   maximum displ.:     0.4709224 α      in ANC's #26, #13, #17, ...

........................................................................
.............................. CYCLE   19 ..............................
........................................................................
   1   -345.2186064 -0.345219E+03  0.214E-03    1.12       0.0  T
   2   -345.2186067 -0.289395E-06  0.112E-03    1.12       6.0  T
   3   -345.2186070 -0.330319E-06  0.784E-04    1.12       8.5  T
   4   -345.2186072 -0.219854E-06  0.410E-04    1.12      16.2  T
   5   -345.2186073 -0.550118E-07  0.201E-04    1.12      33.1  T
   6   -345.2186073 -0.378622E-07  0.573E-05    1.12     116.3  T
   7   -345.2186073 -0.242420E-08  0.188E-05    1.12     354.9  T
     SCC iter.                  ...        0 min,  1.026 sec
     gradient                   ...        0 min,  0.643 sec
 * total energy  :  -339.8398620 Eh     change       -0.7525599E-03 Eh
   gradient norm :     0.0042866 Eh/α   predicted    -0.6813540E-03 (  -9.46%)
   displ. norm   :     0.6873849 α      lambda       -0.6778475E-03
   maximum displ.:     0.4448382 α      in ANC's #26, #13, #17, ...

........................................................................
.............................. CYCLE   20 ..............................
........................................................................
   1   -345.2210027 -0.345221E+03  0.270E-03    1.12       0.0  T
   2   -345.2210038 -0.107472E-05  0.128E-03    1.12       5.2  T
   3   -345.2210043 -0.562097E-06  0.692E-04    1.12       9.6  T
   4   -345.2210045 -0.172483E-06  0.353E-04    1.12      18.9  T
   5   -345.2210045  0.812076E-08  0.265E-04    1.12      25.1  T
   6   -345.2210045 -0.609746E-07  0.609E-05    1.12     109.4  T
   7   -345.2210045 -0.265374E-08  0.183E-05    1.12     365.3  T
     SCC iter.                  ...        0 min,  1.030 sec
     gradient                   ...        0 min,  0.643 sec
 * total energy  :  -339.8403891 Eh     change       -0.5270589E-03 Eh
   gradient norm :     0.0039649 Eh/α   predicted    -0.4990717E-03 (  -5.31%)
   displ. norm   :     0.6304878 α      lambda       -0.4674910E-03
   maximum displ.:     0.3993960 α      in ANC's #26, #13, #17, ...
 * RMSD in coord.:     0.7119914 α      energy gain  -0.4547884E+00 Eh

generating ANC from model Hessian ...
Using Lindh-Hessian (1995)
 Shifting diagonal of input Hessian by    1.0021864044844741E-002
 Lowest  eigenvalues of input Hessian
    0.010000    0.010006    0.010014    0.010015    0.010015    0.000000
    0.000000    0.000000    0.000000    0.000000    0.000000    0.010036
    0.010068    0.010081    0.010083    0.010225    0.010243    0.010253
 Highest eigenvalues
    2.081907    2.083102    2.123911    2.124191    2.614518    2.617315


........................................................................
.............................. CYCLE   21 ..............................
........................................................................
   1   -345.2239493 -0.345224E+03  0.226E-03    1.11       0.0  T
   2   -345.2239496 -0.258382E-06  0.140E-03    1.11       4.8  T
   3   -345.2239502 -0.605754E-06  0.741E-04    1.11       9.0  T
   4   -345.2239503 -0.173305E-06  0.544E-04    1.11      12.3  T
   5   -345.2239505 -0.131037E-06  0.223E-04    1.11      29.9  T
   6   -345.2239505 -0.412896E-07  0.608E-05    1.11     109.7  T
   7   -345.2239505 -0.342828E-08  0.181E-05    1.11     368.8  T
     SCC iter.                  ...        0 min,  1.030 sec
     gradient                   ...        0 min,  0.648 sec
 * total energy  :  -339.8407242 Eh     change       -0.3351435E-03 Eh
   gradient norm :     0.0038240 Eh/α   predicted     0.0000000E+00 (-100.00%)
   displ. norm   :     0.0698727 α      lambda       -0.6877810E-04
   maximum displ.:     0.0343955 α      in ANC's #11, #50, #19, ...

........................................................................
.............................. CYCLE   22 ..............................
........................................................................
   1   -345.2249709 -0.345225E+03  0.711E-04    1.11       0.0  T
   2   -345.2249709 -0.334554E-07  0.371E-04    1.11      18.0  T
   3   -345.2249709  0.532464E-08  0.256E-04    1.11      26.1  T
   4   -345.2249709 -0.166078E-07  0.175E-04    1.11      38.0  T
   5   -345.2249710 -0.188815E-07  0.612E-05    1.11     109.0  T
     SCC iter.                  ...        0 min,  0.736 sec
     gradient                   ...        0 min,  0.641 sec
 * total energy  :  -339.8407920 Eh     change       -0.6772131E-04 Eh
   gradient norm :     0.0019629 Eh/α   predicted    -0.4195325E-04 ( -38.05%)
   displ. norm   :     0.3467362 α      lambda       -0.1844938E-03
   maximum displ.:     0.1678786 α      in ANC's #11, #19, #15, ...

........................................................................
.............................. CYCLE   23 ..............................
........................................................................
   1   -345.2288277 -0.345229E+03  0.252E-03    1.12       0.0  T
   2   -345.2288282 -0.463648E-06  0.132E-03    1.12       5.1  T
   3   -345.2288282 -0.506627E-07  0.906E-04    1.12       7.4  T
   4   -345.2288285 -0.285074E-06  0.572E-04    1.12      11.7  T
   5   -345.2288287 -0.159550E-06  0.236E-04    1.12      28.2  T
   6   -345.2288287 -0.428599E-07  0.744E-05    1.12      89.6  T
   7   -345.2288287 -0.466639E-08  0.237E-05    1.12     281.0  T
     SCC iter.                  ...        0 min,  1.030 sec
     gradient                   ...        0 min,  0.645 sec
 * total energy  :  -339.8409598 Eh     change       -0.1678749E-03 Eh
   gradient norm :     0.0056094 Eh/α   predicted    -0.9718672E-04 ( -42.11%)
   displ. norm   :     0.1755231 α      lambda       -0.1029534E-03
   maximum displ.:     0.0903208 α      in ANC's #11, #15, #19, ...

........................................................................
.............................. CYCLE   24 ..............................
........................................................................
   1   -345.2300303 -0.345230E+03  0.576E-04    1.12       0.0  T
   2   -345.2300303 -0.151638E-07  0.385E-04    1.12      17.3  T
   3   -345.2300304 -0.321339E-07  0.212E-04    1.12      31.5  T
   4   -345.2300304 -0.126325E-07  0.151E-04    1.12      44.2  T
   5   -345.2300304 -0.105969E-07  0.397E-05    1.12     167.9  T
     SCC iter.                  ...        0 min,  0.738 sec
     gradient                   ...        0 min,  0.641 sec
 * total energy  :  -339.8410515 Eh     change       -0.9166006E-04 Eh
   gradient norm :     0.0053263 Eh/α   predicted    -0.5306616E-04 ( -42.11%)
   displ. norm   :     0.3963582 α      lambda       -0.2259826E-03
   maximum displ.:     0.2031689 α      in ANC's #11, #15, #19, ...

........................................................................
.............................. CYCLE   25 ..............................
........................................................................
   1   -345.2316367 -0.345232E+03  0.141E-03    1.11       0.0  T
   2   -345.2316368 -0.869290E-07  0.907E-04    1.11       7.3  T
   3   -345.2316368 -0.131964E-07  0.547E-04    1.11      12.2  T
   4   -345.2316369 -0.903800E-07  0.381E-04    1.11      17.5  T
   5   -345.2316370 -0.808240E-07  0.774E-05    1.11      86.1  T
   6   -345.2316370 -0.235940E-08  0.395E-05    1.11     168.9  T
     SCC iter.                  ...        0 min,  0.887 sec
     gradient                   ...        0 min,  0.642 sec
 * total energy  :  -339.8412296 Eh     change       -0.1781112E-03 Eh
   gradient norm :     0.0030222 Eh/α   predicted    -0.1307423E-03 ( -26.60%)
   displ. norm   :     0.4389726 α      lambda       -0.1815683E-03
   maximum displ.:     0.2293681 α      in ANC's #11, #15, #19, ...

........................................................................
.............................. CYCLE   26 ..............................
........................................................................
   1   -345.2325291 -0.345233E+03  0.127E-03    1.11       0.0  T
   2   -345.2325292 -0.101302E-06  0.744E-04    1.11       9.0  T
   3   -345.2325292  0.230485E-07  0.469E-04    1.11      14.2  T
   4   -345.2325293 -0.680808E-07  0.336E-04    1.11      19.8  T
   5   -345.2325293 -0.643602E-07  0.841E-05    1.11      79.2  T
   6   -345.2325293 -0.354925E-08  0.464E-05    1.11     143.7  T
     SCC iter.                  ...        0 min,  0.884 sec
     gradient                   ...        0 min,  0.643 sec
 * total energy  :  -339.8413741 Eh     change       -0.1444928E-03 Eh
   gradient norm :     0.0026251 Eh/α   predicted    -0.1082780E-03 ( -25.06%)
   displ. norm   :     0.4297448 α      lambda       -0.1559249E-03
   maximum displ.:     0.2272298 α      in ANC's #11, #15, #19, ...

........................................................................
.............................. CYCLE   27 ..............................
........................................................................
   1   -345.2330638 -0.345233E+03  0.911E-04    1.10       0.0  T
   2   -345.2330639 -0.835614E-07  0.430E-04    1.10      15.5  T
   3   -345.2330639  0.644366E-08  0.273E-04    1.10      24.4  T
   4   -345.2330639 -0.316584E-08  0.220E-04    1.10      30.3  T
   5   -345.2330639 -0.324891E-07  0.666E-05    1.10     100.1  T
   6   -345.2330639 -0.266311E-08  0.297E-05    1.10     224.7  T
     SCC iter.                  ...        0 min,  0.883 sec
     gradient                   ...        0 min,  0.648 sec
 * total energy  :  -339.8415066 Eh     change       -0.1324750E-03 Eh
   gradient norm :     0.0036502 Eh/α   predicted    -0.9237523E-04 ( -30.27%)
   displ. norm   :     0.4797405 α      lambda       -0.1830183E-03
   maximum displ.:     0.2549522 α      in ANC's #11, #15, #19, ...

........................................................................
.............................. CYCLE   28 ..............................
........................................................................
   1   -345.2333596 -0.345233E+03  0.905E-04    1.10       0.0  T
   2   -345.2333597 -0.962188E-07  0.362E-04    1.10      18.4  T
   3   -345.2333597 -0.574846E-08  0.251E-04    1.10      26.6  T
   4   -345.2333597 -0.853771E-08  0.167E-04    1.10      39.8  T
   5   -345.2333598 -0.169595E-07  0.671E-05    1.10      99.3  T
     SCC iter.                  ...        0 min,  0.737 sec
     gradient                   ...        0 min,  0.643 sec
 * total energy  :  -339.8416617 Eh     change       -0.1551450E-03 Eh
   gradient norm :     0.0040485 Eh/α   predicted    -0.1125704E-03 ( -27.44%)
   displ. norm   :     0.5274208 α      lambda       -0.1909758E-03
   maximum displ.:     0.2805175 α      in ANC's #11, #15, #19, ...

........................................................................
.............................. CYCLE   29 ..............................
........................................................................
   1   -345.2328671 -0.345233E+03  0.105E-03    1.09       0.0  T
   2   -345.2328672 -0.109453E-06  0.544E-04    1.09      12.2  T
   3   -345.2328673 -0.508388E-07  0.348E-04    1.09      19.2  T
   4   -345.2328673 -0.385167E-07  0.208E-04    1.09      32.1  T
   5   -345.2328673 -0.188203E-07  0.648E-05    1.09     102.9  T
   6   -345.2328673 -0.199532E-08  0.248E-05    1.09     268.8  T
     SCC iter.                  ...        0 min,  0.884 sec
     gradient                   ...        0 min,  0.641 sec
 * total energy  :  -339.8418154 Eh     change       -0.1536689E-03 Eh
   gradient norm :     0.0034212 Eh/α   predicted    -0.1220536E-03 ( -20.57%)
   displ. norm   :     0.5012117 α      lambda       -0.1433855E-03
   maximum displ.:     0.2669645 α      in ANC's #11, #15, #19, ...

........................................................................
.............................. CYCLE   30 ..............................
........................................................................
   1   -345.2319268 -0.345232E+03  0.972E-04    1.09       0.0  T
   2   -345.2319269 -0.105893E-06  0.546E-04    1.09      12.2  T
   3   -345.2319270 -0.693092E-07  0.329E-04    1.09      20.2  T
   4   -345.2319270 -0.313346E-07  0.192E-04    1.09      34.8  T
   5   -345.2319270 -0.143541E-07  0.726E-05    1.09      91.8  T
     SCC iter.                  ...        0 min,  0.738 sec
     gradient                   ...        0 min,  0.643 sec
 * total energy  :  -339.8419271 Eh     change       -0.1116715E-03 Eh
   gradient norm :     0.0024116 Eh/α   predicted    -0.8970317E-04 ( -19.67%)
   displ. norm   :     0.4267419 α      lambda       -0.9776981E-04
   maximum displ.:     0.2276736 α      in ANC's #11, #15, #19, ...

........................................................................
.............................. CYCLE   31 ..............................
........................................................................
   1   -345.2315423 -0.345232E+03  0.765E-04    1.09       0.0  T
   2   -345.2315424 -0.824872E-07  0.423E-04    1.09      15.8  T
   3   -345.2315424 -0.559887E-07  0.226E-04    1.09      29.5  T
   4   -345.2315425 -0.163209E-07  0.131E-04    1.09      51.0  T
   5   -345.2315425 -0.475308E-08  0.659E-05    1.09     101.1  T
     SCC iter.                  ...        0 min,  0.739 sec
     gradient                   ...        0 min,  0.646 sec
 * total energy  :  -339.8420047 Eh     change       -0.7767033E-04 Eh
   gradient norm :     0.0019008 Eh/α   predicted    -0.5779229E-04 ( -25.59%)
   displ. norm   :     0.5720797 α      lambda       -0.8263980E-04
   maximum displ.:     0.3032845 α      in ANC's #11, #15, #4, ...

........................................................................
.............................. CYCLE   32 ..............................
........................................................................
   1   -345.2321490 -0.345232E+03  0.102E-03    1.09       0.0  T
   2   -345.2321492 -0.154448E-06  0.521E-04    1.09      12.8  T
   3   -345.2321492 -0.862722E-07  0.245E-04    1.09      27.2  T
   4   -345.2321493 -0.214611E-07  0.158E-04    1.09      42.1  T
   5   -345.2321493 -0.779079E-08  0.755E-05    1.09      88.3  T
     SCC iter.                  ...        0 min,  0.737 sec
     gradient                   ...        0 min,  0.643 sec
 * total energy  :  -339.8420925 Eh     change       -0.8777164E-04 Eh
   gradient norm :     0.0024774 Eh/α   predicted    -0.4733038E-04 ( -46.08%)
   displ. norm   :     0.2370518 α      lambda       -0.5008404E-04
   maximum displ.:     0.1223525 α      in ANC's #11, #15, #4, ...

........................................................................
.............................. CYCLE   33 ..............................
........................................................................
   1   -345.2332995 -0.345233E+03  0.504E-04    1.08       0.0  T
   2   -345.2332995 -0.201925E-07  0.318E-04    1.08      21.0  T
   3   -345.2332995 -0.209582E-07  0.172E-04    1.08      38.7  T
   4   -345.2332995 -0.521754E-08  0.128E-04    1.08      52.3  T
     SCC iter.                  ...        0 min,  0.593 sec
     gradient                   ...        0 min,  0.644 sec
 * total energy  :  -339.8421352 Eh     change       -0.4268711E-04 Eh
   gradient norm :     0.0021444 Eh/α   predicted    -0.2644929E-04 ( -38.04%)
   displ. norm   :     0.3222485 α      lambda       -0.7324436E-04
   maximum displ.:     0.1561788 α      in ANC's #11, #15, #4, ...

........................................................................
.............................. CYCLE   34 ..............................
........................................................................
   1   -345.2359953 -0.345236E+03  0.916E-04    1.08       0.0  T
   2   -345.2359953 -0.503213E-07  0.589E-04    1.08      11.3  T
   3   -345.2359954 -0.689896E-07  0.355E-04    1.08      18.8  T
   4   -345.2359954 -0.427654E-07  0.213E-04    1.08      31.2  T
   5   -345.2359954 -0.219674E-07  0.424E-05    1.08     157.1  T
   6   -345.2359954 -0.477201E-09  0.165E-05    1.08     404.6  T
     SCC iter.                  ...        0 min,  0.883 sec
     gradient                   ...        0 min,  0.643 sec
 * total energy  :  -339.8421893 Eh     change       -0.5414309E-04 Eh
   gradient norm :     0.0016228 Eh/α   predicted    -0.4042718E-04 ( -25.33%)
   displ. norm   :     0.4067405 α      lambda       -0.4268234E-04
   maximum displ.:     0.1996414 α      in ANC's #15, #11, #4, ...

........................................................................
.............................. CYCLE   35 ..............................
........................................................................
   1   -345.2370677 -0.345237E+03  0.101E-03    1.08       0.0  T
   2   -345.2370678 -0.791480E-07  0.631E-04    1.08      10.6  T
   3   -345.2370679 -0.117697E-06  0.382E-04    1.08      17.5  T
   4   -345.2370680 -0.663783E-07  0.203E-04    1.08      32.9  T
   5   -345.2370680 -0.138844E-07  0.654E-05    1.08     101.9  T
   6   -345.2370680 -0.113965E-08  0.329E-05    1.08     202.6  T
     SCC iter.                  ...        0 min,  0.882 sec
     gradient                   ...        0 min,  0.649 sec
 * total energy  :  -339.8422297 Eh     change       -0.4039631E-04 Eh
   gradient norm :     0.0015838 Eh/α   predicted    -0.2291465E-04 ( -43.28%)
   displ. norm   :     0.1798921 α      lambda       -0.2417124E-04
   maximum displ.:     0.0878403 α      in ANC's #15, #4, #11, ...

........................................................................
.............................. CYCLE   36 ..............................
........................................................................
   1   -345.2381577 -0.345238E+03  0.606E-04    1.08       0.0  T
   2   -345.2381577 -0.214608E-07  0.313E-04    1.08      21.3  T
   3   -345.2381577  0.589012E-08  0.240E-04    1.08      27.7  T
   4   -345.2381577 -0.255359E-07  0.109E-04    1.08      61.3  T
   5   -345.2381577 -0.377077E-08  0.562E-05    1.08     118.7  T
     SCC iter.                  ...        0 min,  0.737 sec
     gradient                   ...        0 min,  0.646 sec
 * total energy  :  -339.8422603 Eh     change       -0.3058900E-04 Eh
   gradient norm :     0.0015364 Eh/α   predicted    -0.1226036E-04 ( -59.92%)
   displ. norm   :     0.3626437 α      lambda       -0.5831515E-04
   maximum displ.:     0.1737528 α      in ANC's #15, #4, #11, ...

........................................................................
.............................. CYCLE   37 ..............................
........................................................................
   1   -345.2360456 -0.345236E+03  0.113E-03    1.08       0.0  T
   2   -345.2360457 -0.118537E-06  0.543E-04    1.08      12.3  T
   3   -345.2360457 -0.595082E-08  0.378E-04    1.08      17.6  T
   4   -345.2360458 -0.345967E-07  0.211E-04    1.08      31.6  T
   5   -345.2360458 -0.168279E-07  0.109E-04    1.08      61.2  T
   6   -345.2360458 -0.106495E-07  0.283E-05    1.08     235.5  T
     SCC iter.                  ...        0 min,  0.883 sec
     gradient                   ...        0 min,  0.644 sec
 * total energy  :  -339.8423210 Eh     change       -0.6071284E-04 Eh
   gradient norm :     0.0019966 Eh/α   predicted    -0.3086642E-04 ( -49.16%)
   displ. norm   :     0.3240518 α      lambda       -0.3813234E-04
   maximum displ.:     0.1453009 α      in ANC's #15, #4, #21, ...

........................................................................
.............................. CYCLE   38 ..............................
........................................................................
   1   -345.2355728 -0.345236E+03  0.912E-04    1.08       0.0  T
   2   -345.2355729 -0.539279E-07  0.472E-04    1.08      14.1  T
   3   -345.2355729  0.172783E-07  0.301E-04    1.08      22.2  T
   4   -345.2355729 -0.131588E-07  0.179E-04    1.08      37.2  T
   5   -345.2355729 -0.218171E-07  0.713E-05    1.08      93.4  T
     SCC iter.                  ...        0 min,  0.740 sec
     gradient                   ...        0 min,  0.640 sec
 * total energy  :  -339.8423613 Eh     change       -0.4022199E-04 Eh
   gradient norm :     0.0020924 Eh/α   predicted    -0.1995645E-04 ( -50.38%)
   displ. norm   :     0.1826825 α      lambda       -0.2767114E-04
   maximum displ.:     0.0851878 α      in ANC's #4, #15, #21, ...

........................................................................
.............................. CYCLE   39 ..............................
........................................................................
   1   -345.2348331 -0.345235E+03  0.466E-04    1.08       0.0  T
   2   -345.2348331 -0.234940E-07  0.215E-04    1.08      31.1  T
   3   -345.2348331  0.219870E-09  0.148E-04    1.08      45.0  T
   4   -345.2348331 -0.795791E-08  0.927E-05    1.08      72.0  T
     SCC iter.                  ...        0 min,  0.596 sec
     gradient                   ...        0 min,  0.649 sec
 * total energy  :  -339.8423849 Eh     change       -0.2363280E-04 Eh
   gradient norm :     0.0015770 Eh/α   predicted    -0.1429880E-04 ( -39.50%)
   displ. norm   :     0.4002176 α      lambda       -0.4364503E-04
   maximum displ.:     0.1916893 α      in ANC's #4, #15, #21, ...

........................................................................
.............................. CYCLE   40 ..............................
........................................................................
   1   -345.2329132 -0.345233E+03  0.125E-03    1.08       0.0  T
   2   -345.2329134 -0.167803E-06  0.564E-04    1.08      11.8  T
   3   -345.2329134 -0.301918E-07  0.396E-04    1.08      16.8  T
   4   -345.2329135 -0.884489E-07  0.210E-04    1.08      31.7  T
   5   -345.2329135 -0.133534E-07  0.849E-05    1.08      78.5  T
   6   -345.2329135 -0.463740E-08  0.356E-05    1.08     187.3  T
     SCC iter.                  ...        0 min,  0.889 sec
     gradient                   ...        0 min,  0.652 sec
 * total energy  :  -339.8424281 Eh     change       -0.4319138E-04 Eh
   gradient norm :     0.0012010 Eh/α   predicted    -0.2338124E-04 ( -45.87%)
   displ. norm   :     0.2199752 α      lambda       -0.2064382E-04
   maximum displ.:     0.1124369 α      in ANC's #4, #15, #21, ...

........................................................................
.............................. CYCLE   41 ..............................
........................................................................
   1   -345.2325652 -0.345233E+03  0.450E-04    1.08       0.0  T
   2   -345.2325652 -0.134924E-07  0.218E-04    1.08      30.6  T
   3   -345.2325652 -0.110743E-07  0.162E-04    1.08      41.1  T
   4   -345.2325652 -0.176347E-07  0.641E-05    1.08     104.0  T
     SCC iter.                  ...        0 min,  0.591 sec
     gradient                   ...        0 min,  0.646 sec
 * total energy  :  -339.8424543 Eh     change       -0.2622177E-04 Eh
   gradient norm :     0.0015816 Eh/α   predicted    -0.1054490E-04 ( -59.79%)
   displ. norm   :     0.3609373 α      lambda       -0.4248686E-04
   maximum displ.:     0.1858203 α      in ANC's #4, #15, #21, ...

........................................................................
.............................. CYCLE   42 ..............................
........................................................................
   1   -345.2335932 -0.345234E+03  0.575E-04    1.08       0.0  T
   2   -345.2335932 -0.137545E-07  0.308E-04    1.08      21.7  T
   3   -345.2335932 -0.995249E-08  0.253E-04    1.08      26.3  T
   4   -345.2335932 -0.402264E-07  0.100E-04    1.08      66.5  T
   5   -345.2335932 -0.102449E-08  0.566E-05    1.08     117.7  T
     SCC iter.                  ...        0 min,  0.738 sec
     gradient                   ...        0 min,  0.651 sec
 * total energy  :  -339.8425047 Eh     change       -0.5040597E-04 Eh
   gradient norm :     0.0018080 Eh/α   predicted    -0.2247797E-04 ( -55.41%)
   displ. norm   :     0.4512274 α      lambda       -0.4538901E-04
   maximum displ.:     0.2361295 α      in ANC's #4, #15, #21, ...
 * RMSD in coord.:     0.4355672 α      energy gain  -0.2115608E-02 Eh

generating ANC from model Hessian ...
Using Lindh-Hessian (1995)
 Shifting diagonal of input Hessian by    1.0024201826344456E-002
 Lowest  eigenvalues of input Hessian
    0.010000    0.010009    0.010015    0.010018    0.010018    0.000000
    0.000000    0.000000    0.000000    0.000000    0.000000    0.010029
    0.010067    0.010086    0.010089    0.010212    0.010245    0.010264
 Highest eigenvalues
    2.085921    2.088275    2.122444    2.122555    2.626061    2.626780


........................................................................
.............................. CYCLE   43 ..............................
........................................................................
   1   -345.2339908 -0.345234E+03  0.774E-04    1.08       0.0  T
   2   -345.2339909 -0.641633E-07  0.340E-04    1.08      19.6  T
   3   -345.2339909 -0.133207E-08  0.206E-04    1.08      32.3  T
   4   -345.2339909  0.683190E-08  0.130E-04    1.08      51.1  T
   5   -345.2339909 -0.127270E-07  0.464E-05    1.08     143.6  T
     SCC iter.                  ...        0 min,  0.735 sec
     gradient                   ...        0 min,  0.648 sec
 * total energy  :  -339.8425548 Eh     change       -0.5013973E-04 Eh
   gradient norm :     0.0018031 Eh/α   predicted     0.0000000E+00 (-100.00%)
   displ. norm   :     0.0434518 α      lambda       -0.1639206E-04
   maximum displ.:     0.0179551 α      in ANC's #5, #31, #34, ...

........................................................................
.............................. CYCLE   44 ..............................
........................................................................
   1   -345.2357493 -0.345236E+03  0.688E-04    1.08       0.0  T
   2   -345.2357493 -0.961342E-08  0.374E-04    1.08      17.8  T
   3   -345.2357492  0.334919E-07  0.307E-04    1.08      21.7  T
   4   -345.2357493 -0.587694E-07  0.142E-04    1.08      46.9  T
   5   -345.2357493 -0.107837E-07  0.503E-05    1.08     132.5  T
     SCC iter.                  ...        0 min,  0.741 sec
     gradient                   ...        0 min,  0.648 sec
 * total energy  :  -339.8425740 Eh     change       -0.1911479E-04 Eh
   gradient norm :     0.0008947 Eh/α   predicted    -0.8345899E-05 ( -56.34%)
   displ. norm   :     0.1188440 α      lambda       -0.2718823E-04
   maximum displ.:     0.0530315 α      in ANC's #31, #5, #34, ...

........................................................................
.............................. CYCLE   45 ..............................
........................................................................
   1   -345.2369132 -0.345237E+03  0.891E-04    1.08       0.0  T
   2   -345.2369132 -0.317821E-07  0.457E-04    1.08      14.6  T
   3   -345.2369133 -0.559747E-07  0.353E-04    1.08      18.9  T
   4   -345.2369134 -0.931250E-07  0.136E-04    1.08      49.2  T
   5   -345.2369134  0.494049E-08  0.859E-05    1.08      77.6  T
     SCC iter.                  ...        0 min,  0.745 sec
     gradient                   ...        0 min,  0.652 sec
 * total energy  :  -339.8426003 Eh     change       -0.2631964E-04 Eh
   gradient norm :     0.0012740 Eh/α   predicted    -0.1368058E-04 ( -48.02%)
   displ. norm   :     0.1016638 α      lambda       -0.1362217E-04
   maximum displ.:     0.0503555 α      in ANC's #5, #31, #34, ...

........................................................................
.............................. CYCLE   46 ..............................
........................................................................
   1   -345.2363099 -0.345236E+03  0.437E-04    1.08       0.0  T
   2   -345.2363099  0.119257E-09  0.246E-04    1.08      27.1  T
   3   -345.2363099 -0.131940E-07  0.195E-04    1.08      34.2  T
   4   -345.2363099 -0.242767E-07  0.696E-05    1.08      95.7  T
     SCC iter.                  ...        0 min,  0.593 sec
     gradient                   ...        0 min,  0.651 sec
 * total energy  :  -339.8426151 Eh     change       -0.1486590E-04 Eh
   gradient norm :     0.0013073 Eh/α   predicted    -0.6847563E-05 ( -53.94%)
   displ. norm   :     0.1221561 α      lambda       -0.1477579E-04
   maximum displ.:     0.0645914 α      in ANC's #5, #31, #11, ...

........................................................................
.............................. CYCLE   47 ..............................
........................................................................
   1   -345.2358407 -0.345236E+03  0.354E-04    1.08       0.0  T
   2   -345.2358407 -0.289987E-08  0.218E-04    1.08      30.6  T
   3   -345.2358407 -0.104679E-07  0.149E-04    1.08      44.7  T
   4   -345.2358407 -0.896097E-08  0.712E-05    1.08      93.7  T
     SCC iter.                  ...        0 min,  0.594 sec
     gradient                   ...        0 min,  0.648 sec
 * total energy  :  -339.8426327 Eh     change       -0.1755226E-04 Eh
   gradient norm :     0.0010637 Eh/α   predicted    -0.7444007E-05 ( -57.59%)
   displ. norm   :     0.1678370 α      lambda       -0.1930725E-04
   maximum displ.:     0.0934957 α      in ANC's #5, #31, #11, ...

........................................................................
.............................. CYCLE   48 ..............................
........................................................................
   1   -345.2355443 -0.345236E+03  0.493E-04    1.08       0.0  T
   2   -345.2355443 -0.258017E-07  0.249E-04    1.08      26.7  T
   3   -345.2355444 -0.129245E-07  0.149E-04    1.08      44.8  T
   4   -345.2355444 -0.876855E-08  0.962E-05    1.08      69.3  T
     SCC iter.                  ...        0 min,  0.592 sec
     gradient                   ...        0 min,  0.645 sec
 * total energy  :  -339.8426536 Eh     change       -0.2090169E-04 Eh
   gradient norm :     0.0009392 Eh/α   predicted    -0.9775382E-05 ( -53.23%)
   displ. norm   :     0.1642732 α      lambda       -0.1552391E-04
   maximum displ.:     0.0960145 α      in ANC's #5, #31, #11, ...

........................................................................
.............................. CYCLE   49 ..............................
........................................................................
   1   -345.2355649 -0.345236E+03  0.394E-04    1.08       0.0  T
   2   -345.2355649  0.142660E-08  0.241E-04    1.08      27.7  T
   3   -345.2355649 -0.287230E-07  0.159E-04    1.08      42.0  T
   4   -345.2355650 -0.195523E-07  0.647E-05    1.08     103.1  T
     SCC iter.                  ...        0 min,  0.595 sec
     gradient                   ...        0 min,  0.648 sec
 * total energy  :  -339.8426701 Eh     change       -0.1651910E-04 Eh
   gradient norm :     0.0011137 Eh/α   predicted    -0.7859232E-05 ( -52.42%)
   displ. norm   :     0.1378544 α      lambda       -0.1219374E-04
   maximum displ.:     0.0843732 α      in ANC's #5, #31, #11, ...

........................................................................
.............................. CYCLE   50 ..............................
........................................................................
   1   -345.2361940 -0.345236E+03  0.309E-04    1.07       0.0  T
   2   -345.2361940  0.110172E-07  0.211E-04    1.07      31.7  T
   3   -345.2361940 -0.253197E-07  0.144E-04    1.07      46.3  T
   4   -345.2361941 -0.138650E-07  0.535E-05    1.07     124.7  T
     SCC iter.                  ...        0 min,  0.591 sec
     gradient                   ...        0 min,  0.650 sec
 * total energy  :  -339.8426853 Eh     change       -0.1513581E-04 Eh
   gradient norm :     0.0009800 Eh/α   predicted    -0.6148560E-05 ( -59.38%)
   displ. norm   :     0.1616208 α      lambda       -0.1598569E-04
   maximum displ.:     0.1007576 α      in ANC's #5, #11, #31, ...

........................................................................
.............................. CYCLE   51 ..............................
........................................................................
   1   -345.2368073 -0.345237E+03  0.431E-04    1.07       0.0  T
   2   -345.2368073  0.117807E-07  0.274E-04    1.07      24.3  T
   3   -345.2368073 -0.451157E-07  0.178E-04    1.07      37.4  T
   4   -345.2368074 -0.214272E-07  0.642E-05    1.07     103.8  T
     SCC iter.                  ...        0 min,  0.591 sec
     gradient                   ...        0 min,  0.649 sec
 * total energy  :  -339.8427054 Eh     change       -0.2014272E-04 Eh
   gradient norm :     0.0008327 Eh/α   predicted    -0.8090326E-05 ( -59.83%)
   displ. norm   :     0.2070993 α      lambda       -0.1908155E-04
   maximum displ.:     0.1301799 α      in ANC's #5, #11, #16, ...

........................................................................
.............................. CYCLE   52 ..............................
........................................................................
   1   -345.2369879 -0.345237E+03  0.503E-04    1.07       0.0  T
   2   -345.2369879  0.268784E-08  0.290E-04    1.07      23.0  T
   3   -345.2369879 -0.485379E-07  0.181E-04    1.07      36.7  T
   4   -345.2369880 -0.249044E-07  0.602E-05    1.07     110.7  T
     SCC iter.                  ...        0 min,  0.591 sec
     gradient                   ...        0 min,  0.645 sec
 * total energy  :  -339.8427279 Eh     change       -0.2250478E-04 Eh
   gradient norm :     0.0008513 Eh/α   predicted    -0.9725754E-05 ( -56.78%)
   displ. norm   :     0.1993876 α      lambda       -0.1561955E-04
   maximum displ.:     0.1275685 α      in ANC's #5, #11, #16, ...

........................................................................
.............................. CYCLE   53 ..............................
........................................................................
   1   -345.2369875 -0.345237E+03  0.350E-04    1.07       0.0  T
   2   -345.2369875 -0.524847E-08  0.175E-04    1.07      38.0  T
   3   -345.2369876 -0.896028E-08  0.123E-04    1.07      54.0  T
     SCC iter.                  ...        0 min,  0.447 sec
     gradient                   ...        0 min,  0.645 sec
 * total energy  :  -339.8427467 Eh     change       -0.1875200E-04 Eh
   gradient norm :     0.0008965 Eh/α   predicted    -0.7949389E-05 ( -57.61%)
   displ. norm   :     0.1768392 α      lambda       -0.1350820E-04
   maximum displ.:     0.1148239 α      in ANC's #5, #11, #16, ...

........................................................................
.............................. CYCLE   54 ..............................
........................................................................
   1   -345.2367323 -0.345237E+03  0.247E-04    1.07       0.0  T
   2   -345.2367323 -0.256404E-08  0.122E-04    1.07      54.9  T
   3   -345.2367323  0.219353E-08  0.105E-04    1.07      63.4  T
     SCC iter.                  ...        0 min,  0.446 sec
     gradient                   ...        0 min,  0.647 sec
 * total energy  :  -339.8427644 Eh     change       -0.1773024E-04 Eh
   gradient norm :     0.0008501 Eh/α   predicted    -0.6849537E-05 ( -61.37%)
   displ. norm   :     0.1894614 α      lambda       -0.1603379E-04
   maximum displ.:     0.1236206 α      in ANC's #5, #16, #11, ...

........................................................................
.............................. CYCLE   55 ..............................
........................................................................
   1   -345.2363518 -0.345236E+03  0.330E-04    1.07       0.0  T
   2   -345.2363518 -0.582116E-08  0.155E-04    1.07      43.1  T
   3   -345.2363518 -0.621708E-08  0.139E-04    1.07      47.8  T
     SCC iter.                  ...        0 min,  0.445 sec
     gradient                   ...        0 min,  0.650 sec
 * total energy  :  -339.8427857 Eh     change       -0.2133945E-04 Eh
   gradient norm :     0.0007449 Eh/α   predicted    -0.8148528E-05 ( -61.81%)
   displ. norm   :     0.2367018 α      lambda       -0.1995427E-04
   maximum displ.:     0.1545598 α      in ANC's #5, #16, #11, ...

........................................................................
.............................. CYCLE   56 ..............................
........................................................................
   1   -345.2357582 -0.345236E+03  0.461E-04    1.07       0.0  T
   2   -345.2357582 -0.391481E-08  0.233E-04    1.07      28.6  T
   3   -345.2357582 -0.247236E-07  0.197E-04    1.07      33.9  T
   4   -345.2357582 -0.236504E-07  0.683E-05    1.07      97.6  T
     SCC iter.                  ...        0 min,  0.592 sec
     gradient                   ...        0 min,  0.645 sec
 * total energy  :  -339.8428115 Eh     change       -0.2577239E-04 Eh
   gradient norm :     0.0007740 Eh/α   predicted    -0.1022843E-04 ( -60.31%)
   displ. norm   :     0.2646946 α      lambda       -0.2019893E-04
   maximum displ.:     0.1733996 α      in ANC's #5, #16, #11, ...

........................................................................
.............................. CYCLE   57 ..............................
........................................................................
   1   -345.2352172 -0.345235E+03  0.413E-04    1.07       0.0  T
   2   -345.2352172 -0.149174E-08  0.213E-04    1.07      31.4  T
   3   -345.2352173 -0.181078E-07  0.182E-04    1.07      36.6  T
   4   -345.2352173 -0.231522E-07  0.622E-05    1.07     107.2  T
     SCC iter.                  ...        0 min,  0.594 sec
     gradient                   ...        0 min,  0.651 sec
 * total energy  :  -339.8428376 Eh     change       -0.2610647E-04 Eh
   gradient norm :     0.0009114 Eh/α   predicted    -0.1041667E-04 ( -60.10%)
   displ. norm   :     0.2637348 α      lambda       -0.1900256E-04
   maximum displ.:     0.1736085 α      in ANC's #5, #16, #11, ...

........................................................................
.............................. CYCLE   58 ..............................
........................................................................
   1   -345.2348355 -0.345235E+03  0.285E-04    1.07       0.0  T
   2   -345.2348355 -0.623288E-09  0.164E-04    1.07      40.7  T
   3   -345.2348355 -0.641421E-08  0.126E-04    1.07      53.1  T
     SCC iter.                  ...        0 min,  0.448 sec
     gradient                   ...        0 min,  0.646 sec
 * total energy  :  -339.8428630 Eh     change       -0.2538266E-04 Eh
   gradient norm :     0.0009690 Eh/α   predicted    -0.9797207E-05 ( -61.40%)
   displ. norm   :     0.2714942 α      lambda       -0.2005146E-04
   maximum displ.:     0.1795311 α      in ANC's #5, #16, #11, ...

........................................................................
.............................. CYCLE   59 ..............................
........................................................................
   1   -345.2346368 -0.345235E+03  0.270E-04    1.07       0.0  T
   2   -345.2346368 -0.113744E-08  0.173E-04    1.07      38.6  T
   3   -345.2346368 -0.729045E-08  0.103E-04    1.07      65.0  T
     SCC iter.                  ...        0 min,  0.448 sec
     gradient                   ...        0 min,  0.644 sec
 * total energy  :  -339.8428902 Eh     change       -0.2719345E-04 Eh
   gradient norm :     0.0008682 Eh/α   predicted    -0.1035550E-04 ( -61.92%)
   displ. norm   :     0.2995855 α      lambda       -0.2227753E-04
   maximum displ.:     0.1990793 α      in ANC's #5, #16, #11, ...

........................................................................
.............................. CYCLE   60 ..............................
........................................................................
   1   -345.2344984 -0.345234E+03  0.334E-04    1.07       0.0  T
   2   -345.2344984 -0.240971E-08  0.213E-04    1.07      31.3  T
   3   -345.2344984 -0.210413E-07  0.111E-04    1.07      60.0  T
   4   -345.2344984 -0.695468E-08  0.571E-05    1.07     116.7  T
     SCC iter.                  ...        0 min,  0.594 sec
     gradient                   ...        0 min,  0.646 sec
 * total energy  :  -339.8429199 Eh     change       -0.2977327E-04 Eh
   gradient norm :     0.0006686 Eh/α   predicted    -0.1158376E-04 ( -61.09%)
   displ. norm   :     0.3098317 α      lambda       -0.2161778E-04
   maximum displ.:     0.2074335 α      in ANC's #5, #16, #11, ...

........................................................................
.............................. CYCLE   61 ..............................
........................................................................
   1   -345.2343630 -0.345234E+03  0.395E-04    1.06       0.0  T
   2   -345.2343630  0.831329E-08  0.264E-04    1.06      25.3  T
   3   -345.2343630 -0.469144E-07  0.140E-04    1.06      47.5  T
   4   -345.2343630 -0.137568E-07  0.485E-05    1.06     137.6  T
     SCC iter.                  ...        0 min,  0.595 sec
     gradient                   ...        0 min,  0.649 sec
 * total energy  :  -339.8429484 Eh     change       -0.2843466E-04 Eh
   gradient norm :     0.0005317 Eh/α   predicted    -0.1127091E-04 ( -60.36%)
   displ. norm   :     0.2756558 α      lambda       -0.1746997E-04
   maximum displ.:     0.1864896 α      in ANC's #5, #16, #4, ...

........................................................................
.............................. CYCLE   62 ..............................
........................................................................
   1   -345.2344234 -0.345234E+03  0.334E-04    1.06       0.0  T
   2   -345.2344234  0.982487E-08  0.230E-04    1.06      29.0  T
   3   -345.2344235 -0.379392E-07  0.122E-04    1.06      54.7  T
   4   -345.2344235 -0.108924E-07  0.416E-05    1.06     160.3  T
     SCC iter.                  ...        0 min,  0.597 sec
     gradient                   ...        0 min,  0.648 sec
 * total energy  :  -339.8429716 Eh     change       -0.2318302E-04 Eh
   gradient norm :     0.0005961 Eh/α   predicted    -0.9032204E-05 ( -61.04%)
   displ. norm   :     0.2201178 α      lambda       -0.1352069E-04
   maximum displ.:     0.1507088 α      in ANC's #5, #16, #4, ...

........................................................................
.............................. CYCLE   63 ..............................
........................................................................
   1   -345.2345170 -0.345235E+03  0.224E-04    1.06       0.0  T
   2   -345.2345170  0.393368E-08  0.146E-04    1.06      45.6  T
   3   -345.2345170 -0.136531E-07  0.901E-05    1.06      74.0  T
     SCC iter.                  ...        0 min,  0.448 sec
     gradient                   ...        0 min,  0.647 sec
 * total energy  :  -339.8429900 Eh     change       -0.1848146E-04 Eh
   gradient norm :     0.0006098 Eh/α   predicted    -0.6908591E-05 ( -62.62%)
   displ. norm   :     0.1886981 α      lambda       -0.1231326E-04
   maximum displ.:     0.1302988 α      in ANC's #5, #16, #4, ...

........................................................................
.............................. CYCLE   64 ..............................
........................................................................
   1   -345.2347230 -0.345235E+03  0.172E-04    1.06       0.0  T
   2   -345.2347230 -0.159150E-08  0.857E-05    1.06      77.8  T
   3   -345.2347230 -0.506247E-09  0.708E-05    1.06      94.2  T
     SCC iter.                  ...        0 min,  0.450 sec
     gradient                   ...        0 min,  0.649 sec
 * total energy  :  -339.8430073 Eh     change       -0.1725674E-04 Eh
   gradient norm :     0.0005792 Eh/α   predicted    -0.6256165E-05 ( -63.75%)
   displ. norm   :     0.1965178 α      lambda       -0.1388084E-04
   maximum displ.:     0.1358011 α      in ANC's #5, #16, #4, ...

........................................................................
.............................. CYCLE   65 ..............................
........................................................................
   1   -345.2348935 -0.345235E+03  0.177E-04    1.06       0.0  T
   2   -345.2348935 -0.238737E-08  0.954E-05    1.06      69.9  T
   3   -345.2348935 -0.150385E-08  0.637E-05    1.06     104.6  T
     SCC iter.                  ...        0 min,  0.448 sec
     gradient                   ...        0 min,  0.650 sec
 * total energy  :  -339.8430270 Eh     change       -0.1964687E-04 Eh
   gradient norm :     0.0004771 Eh/α   predicted    -0.7061185E-05 ( -64.06%)
   displ. norm   :     0.2390041 α      lambda       -0.1762848E-04
   maximum displ.:     0.1644644 α      in ANC's #5, #16, #4, ...

........................................................................
.............................. CYCLE   66 ..............................
........................................................................
   1   -345.2350709 -0.345235E+03  0.232E-04    1.06       0.0  T
   2   -345.2350709 -0.538995E-08  0.130E-04    1.06      51.4  T
   3   -345.2350709 -0.437882E-08  0.784E-05    1.06      85.1  T
     SCC iter.                  ...        0 min,  0.447 sec
     gradient                   ...        0 min,  0.649 sec
 * total energy  :  -339.8430519 Eh     change       -0.2489771E-04 Eh
   gradient norm :     0.0003903 Eh/α   predicted    -0.9039019E-05 ( -63.70%)
   displ. norm   :     0.3047663 α      lambda       -0.2245063E-04
   maximum displ.:     0.2089833 α      in ANC's #5, #16, #4, ...
 * RMSD in coord.:     0.2946221 α      energy gain  -0.5471468E-03 Eh

generating ANC from model Hessian ...
Using Lindh-Hessian (1995)
 Shifting diagonal of input Hessian by    1.0025243205278920E-002
 Lowest  eigenvalues of input Hessian
    0.010000    0.010008    0.010013    0.010019    0.010019    0.010020
    0.000000    0.000000    0.000000    0.000000    0.000000    0.000000
    0.010071    0.010088    0.010090    0.010246    0.010253    0.010268
 Highest eigenvalues
    2.086080    2.090071    2.123039    2.123048    2.625741    2.626526


........................................................................
.............................. CYCLE   67 ..............................
[...]
   192   6 C    3.962 --   193 C    1.646   191 C    1.179   224 H    0.975
   193   6 C    3.961 --   192 C    1.646   194 C    1.186   225 H    0.974
   194   6 C    3.912 --   154 C    1.264   195 N    1.259   193 C    1.186
   195   7 N    3.293 --   194 C    1.259   191 C    1.224   153 Zn   0.458
   196   1 H    1.003 --   156 C    0.974
   197   1 H    1.002 --   157 C    0.975
   198   1 H    1.008 --   163 C    0.974
   199   1 H    1.004 --   163 C    0.986
   200   1 H    1.008 --   163 C    0.974
   201   1 H    1.000 --   164 C    0.970
   202   1 H    1.006 --   166 C    0.972
   203   1 H    1.005 --   166 C    0.981
   204   1 H    1.004 --   166 C    0.985
   205   1 H    1.000 --   167 C    0.971
   206   1 H    1.008 --   169 C    0.974
   207   1 H    1.008 --   169 C    0.974
   208   1 H    1.004 --   169 C    0.986
   209   1 H    1.002 --   171 C    0.975
   210   1 H    1.003 --   172 C    0.974
   211   1 H    1.003 --   177 C    0.974
   212   1 H    1.002 --   178 C    0.975
   213   1 H    1.008 --   184 C    0.974
   214   1 H    1.004 --   184 C    0.986
   215   1 H    1.008 --   184 C    0.974
   216   1 H    1.000 --   185 C    0.971
   217   1 H    1.004 --   187 C    0.985
   218   1 H    1.006 --   187 C    0.972
   219   1 H    1.005 --   187 C    0.981
   220   1 H    1.000 --   188 C    0.970
   221   1 H    1.004 --   190 C    0.986
   222   1 H    1.008 --   190 C    0.974
   223   1 H    1.008 --   190 C    0.974
   224   1 H    1.002 --   192 C    0.975
   225   1 H    1.003 --   193 C    0.974
 ---------------------------------------------------------------------------

Topologies differ in total number of bonds
Writing topology from bond orders to xtbtopo.mol

 dipole moment from electron density (au)
     X       Y       Z   
   0.0349   0.0159  -0.0383  total (Debye):    0.138

           -------------------------------------------------
          |                Geometry Summary                 |
           -------------------------------------------------

      molecular mass/u    :     1874.2111713
   center of mass at/Å    :       46.4472500      -0.0195332      -0.0177128
  moments of inertia/u·Å² :        0.3772061E+05   0.1599789E+06   0.1831722E+06
rotational constants/cm⁻¹ :        0.4469077E-03   0.1053741E-03   0.9203163E-04

 * 214 selected distances

     #   Z          #   Z                                           value/Å
     2   6 C        3   6 C                                       1.3903283
     3   6 C        4   6 C                                       1.4372155
     4   6 C        5   6 C                                       1.3568019
     5   6 C        6   6 C                                       1.4388371 (max)
     3   6 C        7   7 N                                       1.3651062
     6   6 C        7   7 N                                       1.3645461
     6   6 C        8   6 C                                       1.3972667
     9   6 C       10   6 C                                       1.3979746
    10   6 C       12   6 C                                       1.3896726
    12   6 C       13   6 C                                       1.3914124
    13   6 C       15   6 C                                       1.3907839
     9   6 C       16   6 C                                       1.3973159
    15   6 C       16   6 C                                       1.3902905
     8   6 C       18   6 C                                       1.3968066
    18   6 C       19   6 C                                       1.4368329
    19   6 C       20   6 C                                       1.3578057
    18   6 C       21   7 N                                       1.3685675
    20   6 C       22   6 C                                       1.4347613
    21   7 N       22   6 C                                       1.3607980
    22   6 C       23   6 C                                       1.4072175
    23   6 C       24   6 C                                       1.4073795
    24   6 C       25   6 C                                       1.4347830
    25   6 C       26   6 C                                       1.3577738
    26   6 C       27   6 C                                       1.4367946
    24   6 C       28   7 N                                       1.3607934
    27   6 C       28   7 N                                       1.3685853
    27   6 C       29   6 C                                       1.3968032
    30   6 C       31   6 C                                       1.3981181
    31   6 C       33   6 C                                       1.3892546
    33   6 C       34   6 C                                       1.3922139
    34   6 C       36   6 C                                       1.3899713
    30   6 C       37   6 C                                       1.3971786
    36   6 C       37   6 C                                       1.3907116
    29   6 C       39   6 C                                       1.3972166
    39   6 C       40   6 C                                       1.4388142
    40   6 C       41   6 C                                       1.3568099
     2   6 C       42   6 C                                       1.3903338
    41   6 C       42   6 C                                       1.4372290
    39   6 C       43   7 N                                       1.3645425
    42   6 C       43   7 N                                       1.3650812
     2   6 C       44   1 H                                       1.0856250
     4   6 C       45   1 H                                       1.0789285
     5   6 C       46   1 H                                       1.0786185
    11   6 C       47   1 H                                       1.0917279
    11   6 C       48   1 H                                       1.0917753
    11   6 C       49   1 H                                       1.0896370
    12   6 C       50   1 H                                       1.0852126
    14   6 C       51   1 H                                       1.0901703
    14   6 C       52   1 H                                       1.0925468
    14   6 C       53   1 H                                       1.0904935
    15   6 C       54   1 H                                       1.0851877
    17   6 C       55   1 H                                       1.0917422
    17   6 C       56   1 H                                       1.0896196
    17   6 C       57   1 H                                       1.0917406
    19   6 C       58   1 H                                       1.0784820
    20   6 C       59   1 H                                       1.0786372
    25   6 C       60   1 H                                       1.0786117
    26   6 C       61   1 H                                       1.0784702
    32   6 C       62   1 H                                       1.0917226
    32   6 C       63   1 H                                       1.0896222
    32   6 C       64   1 H                                       1.0917510
    33   6 C       65   1 H                                       1.0852213
    35   6 C       66   1 H                                       1.0912567
    35   6 C       67   1 H                                       1.0899436
    35   6 C       68   1 H                                       1.0919972
    36   6 C       69   1 H                                       1.0851827
    38   6 C       70   1 H                                       1.0917154
    38   6 C       71   1 H                                       1.0917922
    38   6 C       72   1 H                                       1.0896298
    40   6 C       73   1 H                                       1.0786251
    41   6 C       74   1 H                                       1.0789280
    76   6 C       77   6 C                                       1.3903327
    77   6 C       78   6 C                                       1.4372213
    78   6 C       79   6 C                                       1.3568034
    79   6 C       80   6 C                                       1.4388240
    77   6 C       81   7 N                                       1.3651019
    80   6 C       81   7 N                                       1.3645592
    80   6 C       82   6 C                                       1.3972492
    83   6 C       84   6 C                                       1.3974555
    84   6 C       86   6 C                                       1.3901032
    86   6 C       87   6 C                                       1.3910469
    87   6 C       89   6 C                                       1.3911499
    83   6 C       90   6 C                                       1.3978356
    89   6 C       90   6 C                                       1.3898616
    82   6 C       92   6 C                                       1.3968032
    92   6 C       93   6 C                                       1.4368221
    93   6 C       94   6 C                                       1.3577971
    92   6 C       95   7 N                                       1.3685594
    94   6 C       96   6 C                                       1.4347631
    95   7 N       96   6 C                                       1.3607802
    96   6 C       97   6 C                                       1.4072364
    97   6 C       98   6 C                                       1.4073095
    98   6 C       99   6 C                                       1.4347721
    99   6 C      100   6 C                                       1.3577756
   100   6 C      101   6 C                                       1.4368047
    98   6 C      102   7 N                                       1.3607842
   101   6 C      102   7 N                                       1.3685717
   101   6 C      103   6 C                                       1.3967970
   104   6 C      105   6 C                                       1.3984198
   105   6 C      107   6 C                                       1.3891094
   107   6 C      108   6 C                                       1.3921832
   108   6 C      110   6 C                                       1.3899964
   104   6 C      111   6 C                                       1.3968854
   110   6 C      111   6 C                                       1.3908589
   103   6 C      113   6 C                                       1.3972332
   113   6 C      114   6 C                                       1.4388141
   114   6 C      115   6 C                                       1.3568114
    76   6 C      116   6 C                                       1.3903387
   115   6 C      116   6 C                                       1.4372299
   113   6 C      117   7 N                                       1.3645618
   116   6 C      117   7 N                                       1.3650793
    76   6 C      118   1 H                                       1.0856266
    78   6 C      119   1 H                                       1.0789269
    79   6 C      120   1 H                                       1.0786189
    85   6 C      121   1 H                                       1.0917520
    85   6 C      122   1 H                                       1.0917357
    85   6 C      123   1 H                                       1.0896224
    86   6 C      124   1 H                                       1.0851935
    88   6 C      125   1 H                                       1.0903539
    88   6 C      126   1 H                                       1.0925798
    88   6 C      127   1 H                                       1.0902802
    89   6 C      128   1 H                                       1.0852069
    91   6 C      129   1 H                                       1.0917819
    91   6 C      130   1 H                                       1.0896344
    91   6 C      131   1 H                                       1.0917133
    93   6 C      132   1 H                                       1.0784799
    94   6 C      133   1 H                                       1.0786280
    99   6 C      134   1 H                                       1.0786177
   100   6 C      135   1 H                                       1.0784705
   106   6 C      136   1 H                                       1.0916789
   106   6 C      137   1 H                                       1.0896363
   106   6 C      138   1 H                                       1.0918010
   107   6 C      139   1 H                                       1.0852312
   109   6 C      140   1 H                                       1.0912117
   109   6 C      141   1 H                                       1.0899218
   109   6 C      142   1 H                                       1.0920624
   110   6 C      143   1 H                                       1.0851735
   112   6 C      144   1 H                                       1.0917484
   112   6 C      145   1 H                                       1.0917438
   112   6 C      146   1 H                                       1.0896207
   114   6 C      147   1 H                                       1.0786256
   115   6 C      148   1 H                                       1.0789293
   149   6 C      150   6 C                                       1.2157371
   151   6 C      152   6 C                                       1.2157071
   154   6 C      155   6 C                                       1.4072523
   155   6 C      156   6 C                                       1.4343738
   156   6 C      157   6 C                                       1.3579783
   157   6 C      158   6 C                                       1.4363029
   155   6 C      159   7 N                                       1.3607507
   158   6 C      159   7 N                                       1.3685557
   158   6 C      160   6 C                                       1.3966511
   161   6 C      162   6 C                                       1.3970045
   162   6 C      164   6 C                                       1.3905508
   164   6 C      165   6 C                                       1.3905304
   165   6 C      167   6 C                                       1.3916609
   161   6 C      168   6 C                                       1.3982642
   167   6 C      168   6 C                                       1.3894001
   160   6 C      170   6 C                                       1.3966653
   170   6 C      171   6 C                                       1.4362812
   171   6 C      172   6 C                                       1.3579663
   170   6 C      173   7 N                                       1.3685382
   172   6 C      174   6 C                                       1.4343795
   173   7 N      174   6 C                                       1.3607331
   174   6 C      175   6 C                                       1.4073126
   175   6 C      176   6 C                                       1.4072828
   176   6 C      177   6 C                                       1.4343922
   177   6 C      178   6 C                                       1.3579635
   178   6 C      179   6 C                                       1.4362830
   176   6 C      180   7 N                                       1.3607124
   179   6 C      180   7 N                                       1.3685449
   179   6 C      181   6 C                                       1.3966175
   182   6 C      183   6 C                                       1.3982772
   183   6 C      185   6 C                                       1.3893909
   185   6 C      186   6 C                                       1.3916696
   186   6 C      188   6 C                                       1.3905203
   182   6 C      189   6 C                                       1.3969944
   188   6 C      189   6 C                                       1.3905622
   181   6 C      191   6 C                                       1.3966583
   191   6 C      192   6 C                                       1.4362634
   192   6 C      193   6 C                                       1.3579545
   154   6 C      194   6 C                                       1.4073942
   193   6 C      194   6 C                                       1.4344013
   191   6 C      195   7 N                                       1.3685676
   194   6 C      195   7 N                                       1.3607207
   156   6 C      196   1 H                                       1.0786093
   157   6 C      197   1 H                                       1.0784490
   163   6 C      198   1 H                                       1.0917534
   163   6 C      199   1 H                                       1.0896061
   163   6 C      200   1 H                                       1.0917314
   164   6 C      201   1 H                                       1.0851685
   166   6 C      202   1 H                                       1.0924870
   166   6 C      203   1 H                                       1.0906563
   166   6 C      204   1 H                                       1.0900612
   167   6 C      205   1 H                                       1.0852157
   169   6 C      206   1 H                                       1.0917618
   169   6 C      207   1 H                                       1.0917539
   169   6 C      208   1 H                                       1.0896362
   171   6 C      209   1 H                                       1.0784459
   172   6 C      210   1 H                                       1.0785977
   177   6 C      211   1 H                                       1.0786025
   178   6 C      212   1 H                                       1.0784518
   184   6 C      213   1 H                                       1.0917543
   184   6 C      214   1 H                                       1.0896362
   184   6 C      215   1 H                                       1.0917620
   185   6 C      216   1 H                                       1.0852162
   187   6 C      217   1 H                                       1.0900602
   187   6 C      218   1 H                                       1.0924831
   187   6 C      219   1 H                                       1.0906624
   188   6 C      220   1 H                                       1.0851696
   190   6 C      221   1 H                                       1.0896090
   190   6 C      222   1 H                                       1.0917533
   190   6 C      223   1 H                                       1.0917311
   192   6 C      224   1 H                                       1.0784411 (min)
   193   6 C      225   1 H                                       1.0785902

 * 3 distinct bonds (by element types)

   Z      Z             #   av. dist./Å        max./Å        min./Å
   1 H    6 C          92     1.0869248     1.0925798     1.0784411
   6 C    6 C          98     1.3971632     1.4388371     1.2157071
   6 C    7 N          24     1.3647142     1.3685853     1.3607124


optimized geometry written to: xtbopt.xyz


           -------------------------------------------------
          | TOTAL ENERGY             -339.843839769019 Eh   |
          | GRADIENT NORM               0.000195221551 Eh/α |
          | HOMO-LUMO GAP               1.025854763513 eV   |
           -------------------------------------------------

------------------------------------------------------------------------
 * finished run on 2022/07/30 at 10:05:18.171     
------------------------------------------------------------------------
 total:
 * wall-time:     0 d,  0 h,  3 min,  9.453 sec
 *  cpu-time:     0 d,  0 h,  3 min,  8.673 sec
 * ratio c/w:     0.996 speedup
 SCF:
 * wall-time:     0 d,  0 h,  0 min,  2.850 sec
 *  cpu-time:     0 d,  0 h,  0 min,  2.836 sec
 * ratio c/w:     0.995 speedup
 ANC optimizer:
 * wall-time:     0 d,  0 h,  3 min,  6.342 sec
 *  cpu-time:     0 d,  0 h,  3 min,  5.580 sec
 * ratio c/w:     0.996 speedup

