      -----------------------------------------------------------      
     |                   =====================                   |     
     |                           x T B                           |     
     |                   =====================                   |     
     |                         S. Grimme                         |     
     |          Mulliken Center for Theoretical Chemistry        |     
     |                    University of Bonn                     |     
      -----------------------------------------------------------      

   * xtb version 6.5.1 (b24c23e) compiled by 'conda@728c89f4b128' on 2022-07-12

   xtb is free software: you can redistribute it and/or modify it under
   the terms of the GNU Lesser General Public License as published by
   the Free Software Foundation, either version 3 of the License, or
   (at your option) any later version.
   
   xtb is distributed in the hope that it will be useful,
   but WITHOUT ANY WARRANTY; without even the implied warranty of
   MERCHANTABILITY or FITNESS FOR A PARTICULAR PURPOSE.  See the
   GNU Lesser General Public License for more details.
   
   Cite this work as:
   * C. Bannwarth, E. Caldeweyher, S. Ehlert, A. Hansen, P. Pracht,
     J. Seibert, S. Spicher, S. Grimme, WIREs Comput. Mol. Sci., 2020, 11,
     e01493. DOI: 10.1002/wcms.1493
   
   for GFN2-xTB:
   * C. Bannwarth, S. Ehlert and S. Grimme., J. Chem. Theory Comput., 2019,
     15, 1652-1671. DOI: 10.1021/acs.jctc.8b01176
   for GFN1-xTB:
   * S. Grimme, C. Bannwarth, P. Shushkov, J. Chem. Theory Comput., 2017,
     13, 1989-2009. DOI: 10.1021/acs.jctc.7b00118
   for GFN0-xTB:
   * P. Pracht, E. Caldeweyher, S. Ehlert, S. Grimme, ChemRxiv, 2019, preprint.
     DOI: 10.26434/chemrxiv.8326202.v1
   for GFN-FF:
   * S. Spicher and S. Grimme, Angew. Chem. Int. Ed., 2020, 59, 15665-15673.
     DOI: 10.1002/anie.202004239
   
   for ALPB and GBSA implicit solvation:
   * S. Ehlert, M. Stahn, S. Spicher, S. Grimme, J. Chem. Theory Comput.,
     2021, 17, 4250-4261. DOI: 10.1021/acs.jctc.1c00471
   
   for DFT-D4:
   * E. Caldeweyher, C. Bannwarth and S. Grimme, J. Chem. Phys., 2017,
     147, 034112. DOI: 10.1063/1.4993215
   * E. Caldeweyher, S. Ehlert, A. Hansen, H. Neugebauer, S. Spicher,
     C. Bannwarth and S. Grimme, J. Chem. Phys., 2019, 150, 154122.
     DOI: 10.1063/1.5090222
   * E. Caldeweyher, J.-M. Mewes, S. Ehlert and S. Grimme, Phys. Chem. Chem. Phys.
     2020, 22, 8499-8512. DOI: 10.1039/D0CP00502A
   
   for sTDA-xTB:
   * S. Grimme and C. Bannwarth, J. Chem. Phys., 2016, 145, 054103.
     DOI: 10.1063/1.4959605
   
   in the mass-spec context:
   * V. Asgeirsson, C. Bauer and S. Grimme, Chem. Sci., 2017, 8, 4879.
     DOI: 10.1039/c7sc00601b
   * J. Koopman and S. Grimme, ACS Omega 2019, 4, 12, 15120-15133.
     DOI: 10.1021/acsomega.9b02011
   
   for metadynamics refer to:
   * S. Grimme, J. Chem. Theory Comput., 2019, 155, 2847-2862
     DOI: 10.1021/acs.jctc.9b00143
   
   for SPH calculations refer to:
   * S. Spicher and S. Grimme, J. Chem. Theory Comput., 2021, 17, 1701-1714
     DOI: 10.1021/acs.jctc.0c01306
   
   with help from (in alphabetical order)
   P. Atkinson, C. Bannwarth, F. Bohle, G. Brandenburg, E. Caldeweyher
   M. Checinski, S. Dohm, S. Ehlert, S. Ehrlich, I. Gerasimov, C. Hölzer
   A. Katbashev, J. Koopman, C. Lavigne, S. Lehtola, F. März, M. Müller,
   F. Musil, H. Neugebauer, J. Pisarek, C. Plett, P. Pracht, F. Pultar,
   J. Seibert, P. Shushkov, S. Spicher, M. Stahn, M. Steiner, T. Strunk,
   J. Stückrath, T. Rose, and J. Unsleber
   
 * started run on 2022/07/30 at 02:24:36.563     

           -------------------------------------------------
          |                Calculation Setup                |
           -------------------------------------------------

          program call               : xtb Ni_Py_C4_2.xyz --gfn 1 --opt -T 48
          hostname                   : cx3-14-19.cx3.hpc.ic.ac.uk
          coordinate file            : Ni_Py_C4_2.xyz
          omp threads                :                     1

   ID    Z sym.   atoms
    1   28 Ni     1, 55
    2    6 C      2-6, 8-11, 13-17, 19-24, 26-29, 31-36, 56-60, 62-65, 67-71,
                  73-78, 80-83, 85-90, 109-112
    3    7 N      7, 12, 18, 25, 30, 37, 61, 66, 72, 79, 84, 91
    4    1 H      38-54, 92-108
########################################################################
[WARNING] Please study the warnings concerning your input carefully
-1- prog_main_parseArguments: Unknown option '-T' provided
########################################################################

           -------------------------------------------------
          |                 G F N 1 - x T B                 |
           -------------------------------------------------

        Reference                      10.1021/acs.jctc.7b00118
      * Hamiltonian:
        H0-scaling (s, p, d)           1.850000    2.250000    2.000000
        zeta-weighting                 0.000000
      * Dispersion:
        s8                             2.400000
        a1                             0.630000
        a2                             5.000000
        s9                             0.000000
      * Repulsion:
        kExp                           1.500000
        rExp                           1.000000
      * Coulomb:
        alpha                          2.000000
        third order                    atomic
        anisotropic                    false
      * Halogen bond correction:
        rad-scale                      1.300000
        damping                        0.440000


          ...................................................
          :                      SETUP                      :
          :.................................................:
          :  # basis functions                 392          :
          :  # atomic orbitals                 390          :
          :  # shells                          226          :
          :  # electrons                       370          :
          :  # halogen bonds                     0          :
          :  max. iterations                   250          :
          :  Hamiltonian                  GFN1-xTB          :
          :  restarted?                      false          :
          :  GBSA solvation                  false          :
          :  PC potential                    false          :
          :  electronic temp.          300.0000000     K    :
          :  accuracy                    1.0000000          :
          :  -> integral cutoff          0.2500000E+02      :
          :  -> integral neglect         0.1000000E-07      :
          :  -> SCF convergence          0.1000000E-05 Eh   :
          :  -> wf. convergence          0.2000000E-04 e    :
          :  Broyden damping             0.4000000          :
          ...................................................

 iter      E             dE          RMSdq      gap      omega  full diag
   1   -202.2710377 -0.202271E+03  0.106E+01    0.30       0.0  T
   2   -194.1334399  0.813760E+01  0.805E+00    0.04       1.0  T
   3   -194.5946486 -0.461209E+00  0.656E+00    0.06       1.0  T
   4      7.8935882  0.202488E+03  0.115E+01    0.12       1.0  T
   5    -86.1140480 -0.940076E+02  0.104E+01    0.06       1.0  T
   6   -194.3769248 -0.108263E+03  0.484E+00    0.13       1.0  T
   7   -196.5477108 -0.217079E+01  0.358E+00    0.22       1.0  T
   8   -199.9701259 -0.342242E+01  0.326E+00    0.11       1.0  T
   9   -201.1582209 -0.118810E+01  0.297E+00    0.14       1.0  T
  10   -200.9341788  0.224042E+00  0.289E+00    0.07       1.0  T
  11   -201.3131754 -0.378997E+00  0.265E+00    0.04       1.0  T
  12   -200.8695749  0.443601E+00  0.251E+00    0.04       1.0  T
  13   -201.1867050 -0.317130E+00  0.242E+00    0.01       1.0  T
  14   -201.3901332 -0.203428E+00  0.224E+00    0.08       1.0  T
  15   -200.8353268  0.554806E+00  0.221E+00    0.01       1.0  T
  16   -201.5525275 -0.717201E+00  0.187E+00    0.14       1.0  T
  17   -202.2579033 -0.705376E+00  0.933E-01    0.03       1.0  T
  18   -202.5990177 -0.341114E+00  0.890E-01    0.25       1.0  T
  19   -202.6679949 -0.689772E-01  0.597E-01    0.29       1.0  T
  20   -202.6915284 -0.235334E-01  0.443E-01    0.28       1.0  T
  21   -202.5921574  0.993710E-01  0.637E-01    0.09       1.0  T
  22   -202.7073599 -0.115203E+00  0.327E-01    0.30       1.0  T
  23   -202.7165244 -0.916442E-02  0.284E-01    0.37       1.0  T
  24   -202.7241920 -0.766767E-02  0.240E-01    0.51       1.0  T
  25   -202.7262859 -0.209386E-02  0.213E-01    0.57       1.0  T
  26   -202.7292032 -0.291726E-02  0.184E-01    0.68       1.0  T
  27   -202.7303286 -0.112545E-02  0.168E-01    0.74       1.0  T
  28   -202.7310969 -0.768255E-03  0.159E-01    0.78       1.0  T
  29   -202.7321194 -0.102258E-02  0.145E-01    0.83       1.0  T
  30   -202.7329852 -0.865718E-03  0.131E-01    0.86       1.0  T
  31   -202.7334607 -0.475514E-03  0.124E-01    0.87       1.0  T
  32   -202.7339584 -0.497708E-03  0.115E-01    0.89       1.0  T
  33   -202.7343337 -0.375314E-03  0.108E-01    0.91       1.0  T
  34   -202.7345636 -0.229895E-03  0.103E-01    0.91       1.0  T
  35   -202.7349347 -0.371144E-03  0.948E-02    0.91       1.0  T
  36   -202.7355745 -0.639765E-03  0.779E-02    0.92       1.0  T
  37   -202.7363078 -0.733302E-03  0.517E-02    0.91       1.0  T
  38   -202.7366342 -0.326395E-03  0.334E-02    0.91       1.0  T
  39   -202.7367545 -0.120293E-03  0.236E-02    0.91       1.0  T
  40   -202.7368149 -0.604187E-04  0.167E-02    0.91       1.0  T
  41   -202.7368390 -0.241028E-04  0.132E-02    0.91       1.0  T
  42   -202.7368578 -0.187800E-04  0.982E-03    0.91       1.0  T
  43   -202.7368656 -0.778776E-05  0.798E-03    0.92       1.2  T
  44   -202.7368683 -0.273490E-05  0.720E-03    0.92       1.3  T
  45   -202.7368681  0.253970E-06  0.731E-03    0.92       1.3  T
  46   -202.7368690 -0.910470E-06  0.703E-03    0.92       1.3  T
  47   -202.7368736 -0.465987E-05  0.532E-03    0.92       1.8  T
  48   -202.7368785 -0.483762E-05  0.244E-03    0.92       3.9  T
  49   -202.7368797 -0.123226E-05  0.588E-04    0.92      16.1  T
  50   -202.7368798 -0.690350E-07  0.198E-04    0.92      47.7  T
  51   -202.7368798 -0.140739E-08  0.173E-04    0.92      54.6  T

   *** convergence criteria satisfied after 51 iterations ***

         #    Occupation            Energy/Eh            Energy/eV
      -------------------------------------------------------------
         1        2.0000           -0.7845738             -21.3493
       ...           ...                  ...                  ...
       179        2.0000           -0.4010788             -10.9139
       180        2.0000           -0.4007794             -10.9058
       181        2.0000           -0.4002130             -10.8904
       182        2.0000           -0.3999253             -10.8825
       183        2.0000           -0.3967257             -10.7955
       184        2.0000           -0.3897958             -10.6069
       185        2.0000           -0.3859072             -10.5011 (HOMO)
       186                         -0.3522244              -9.5845 (LUMO)
       187                         -0.3422104              -9.3120
       188                         -0.3418733              -9.3028
       189                         -0.3358095              -9.1378
       190                         -0.3330835              -9.0637
       ...                                ...                  ...
       390                          1.2420882              33.7989
      -------------------------------------------------------------
                  HL-Gap            0.0336828 Eh            0.9166 eV
             Fermi-level           -0.3690579 Eh          -10.0426 eV

 SCC (total)                   0 d,  0 h,  0 min,  3.129 sec
 SCC setup                      ...        0 min,  0.005 sec (  0.174%)
 Dispersion                     ...        0 min,  0.005 sec (  0.146%)
 classical contributions        ...        0 min,  0.002 sec (  0.051%)
 integral evaluation            ...        0 min,  0.163 sec (  5.213%)
 iterations                     ...        0 min,  2.525 sec ( 80.689%)
 molecular gradient             ...        0 min,  0.417 sec ( 13.328%)
 printout                       ...        0 min,  0.012 sec (  0.398%)

         :::::::::::::::::::::::::::::::::::::::::::::::::::::
         ::                     SUMMARY                     ::
         :::::::::::::::::::::::::::::::::::::::::::::::::::::
         :: total energy            -199.803808934222 Eh    ::
         :: gradient norm              0.492295413593 Eh/a0 ::
         :: HOMO-LUMO gap              0.916554923493 eV    ::
         ::.................................................::
         :: SCC energy              -202.736879764102 Eh    ::
         :: -> electrostatic           0.164544122809 Eh    ::
         :: repulsion energy           3.033545852099 Eh    ::
         :: dispersion energy         -0.100475022218 Eh    ::
         :: halogen bond corr.         0.000000000000 Eh    ::
         :: add. restraining           0.000000000000 Eh    ::
         :: total charge               0.000000000673 e     ::
         :::::::::::::::::::::::::::::::::::::::::::::::::::::

      ----------------------------------------------------------- 
     |                   =====================                   |
     |                        A N C O P T                        |
     |                   =====================                   |
     |               Approximate Normal Coordinate               |
     |                Rational Function Optimizer                |
      ----------------------------------------------------------- 

          ...................................................
          :                      SETUP                      :
          :.................................................:
          :   optimization level            normal          :
          :   max. optcycles                   336          :
          :   ANC micro-cycles                  20          :
          :   degrees of freedom               330          :
          :.................................................:
          :   RF solver                   davidson          :
          :   write xtbopt.log                true          :
          :   linear?                        false          :
          :   energy convergence         0.5000000E-05 Eh   :
          :   grad. convergence          0.1000000E-02 Eh/α :
          :   maximium RF displ.         1.0000000          :
          :   Hlow (freq-cutoff)         0.1000000E-01      :
          :   Hmax (freq-cutoff)         5.0000000          :
          :   S6 in model hess.         20.0000000          :
          ...................................................

generating ANC from model Hessian ...
Using Lindh-Hessian (1995)
 Shifting diagonal of input Hessian by    1.0064273091864957E-002
 Lowest  eigenvalues of input Hessian
    0.010000    0.010044    0.010046    0.010059    0.000000    0.000000
    0.000000    0.000000    0.000000    0.000000    0.010194    0.010244
    0.010319    0.010324    0.010620    0.010701    0.010755    0.010762
 Highest eigenvalues
    2.095001    2.095214    2.101588    2.102615    2.104140    2.536578


........................................................................
.............................. CYCLE    1 ..............................
........................................................................
   1   -202.7368798 -0.202737E+03  0.381E-05    0.92       0.0  T
   2   -202.7368798 -0.120906E-09  0.486E-05    0.92     194.3  T
   3   -202.7368798 -0.350838E-09  0.121E-05    0.92     778.8  T
     SCC iter.                  ...        0 min,  0.150 sec
     gradient                   ...        0 min,  0.415 sec
 * total energy  :  -199.8038089 Eh     change       -0.6049561E-08 Eh
   gradient norm :     0.4922950 Eh/α   predicted     0.0000000E+00 (-100.00%)
   displ. norm   :     0.4456284 α      lambda       -0.1643052E+00
   maximum displ.:     0.0943416 α      in ANC's #156, #155, #87, ...

........................................................................
.............................. CYCLE    2 ..............................
........................................................................
   1   -202.8196009 -0.202820E+03  0.141E-01    1.08       0.0  T
   2   -202.8218032 -0.220228E-02  0.673E-02    1.09       1.0  T
   3   -202.8227493 -0.946123E-03  0.345E-02    1.09       1.0  T
   4   -202.8229164 -0.167117E-03  0.196E-02    1.09       1.0  T
   5   -202.8229392 -0.228037E-04  0.109E-02    1.09       1.0  T
   6   -202.8229784 -0.391992E-04  0.164E-03    1.09       5.8  T
   7   -202.8229788 -0.357839E-06  0.721E-04    1.09      13.1  T
   8   -202.8229788 -0.571053E-07  0.403E-04    1.09      23.5  T
   9   -202.8229789 -0.319947E-07  0.149E-04    1.09      63.5  T
  10   -202.8229789 -0.407366E-08  0.348E-05    1.09     271.5  T
     SCC iter.                  ...        0 min,  0.500 sec
     gradient                   ...        0 min,  0.415 sec
 * total energy  :  -199.9350950 Eh     change       -0.1312861E+00 Eh
   gradient norm :     0.2825622 Eh/α   predicted    -0.9849380E-01 ( -24.98%)
   displ. norm   :     0.5097409 α      lambda       -0.1075987E+00
   maximum displ.:     0.1429238 α      in ANC's #32, #87, #156, ...

........................................................................
.............................. CYCLE    3 ..............................
........................................................................
   1   -202.9448586 -0.202945E+03  0.166E-01    1.30       0.0  T
   2   -202.9473142 -0.245566E-02  0.773E-02    1.28       1.0  T
   3   -202.9487469 -0.143263E-02  0.434E-02    1.30       1.0  T
   4   -202.9493293 -0.582494E-03  0.206E-02    1.29       1.0  T
   5   -202.9493688 -0.394841E-04  0.101E-02    1.30       1.0  T
   6   -202.9493929 -0.240563E-04  0.182E-03    1.30       5.2  T
   7   -202.9493935 -0.613996E-06  0.909E-04    1.30      10.4  T
   8   -202.9493938 -0.251498E-06  0.383E-04    1.30      24.7  T
   9   -202.9493938 -0.508674E-07  0.125E-04    1.30      75.9  T
  10   -202.9493938 -0.342632E-08  0.321E-05    1.30     293.9  T
     SCC iter.                  ...        0 min,  0.499 sec
     gradient                   ...        0 min,  0.416 sec
 * total energy  :  -199.9801466 Eh     change       -0.4505157E-01 Eh
   gradient norm :     0.2593382 Eh/α   predicted    -0.6777835E-01 (  50.45%)
   displ. norm   :     0.3979476 α      lambda       -0.4831739E-01
   maximum displ.:     0.1766028 α      in ANC's #32, #23, #87, ...

........................................................................
.............................. CYCLE    4 ..............................
........................................................................
   1   -202.9585852 -0.202959E+03  0.527E-02    1.26       0.0  T
   2   -202.9587717 -0.186542E-03  0.357E-02    1.25       1.0  T
   3   -202.9589837 -0.212037E-03  0.169E-02    1.26       1.0  T
   4   -202.9590087 -0.249181E-04  0.126E-02    1.25       1.0  T
   5   -202.9590413 -0.326346E-04  0.396E-03    1.26       2.4  T
   6   -202.9590449 -0.364664E-05  0.114E-03    1.26       8.3  T
   7   -202.9590453 -0.367058E-06  0.404E-04    1.26      23.4  T
   8   -202.9590454 -0.559404E-07  0.161E-04    1.26      58.5  T
   9   -202.9590454 -0.742202E-08  0.490E-05    1.26     192.9  T
     SCC iter.                  ...        0 min,  0.452 sec
     gradient                   ...        0 min,  0.417 sec
 * total energy  :  -200.0048986 Eh     change       -0.2475203E-01 Eh
   gradient norm :     0.0613606 Eh/α   predicted    -0.2798466E-01 (  13.06%)
   displ. norm   :     0.6107360 α      lambda       -0.1580065E-01
   maximum displ.:     0.3889041 α      in ANC's #32, #23, #69, ...

........................................................................
.............................. CYCLE    5 ..............................
........................................................................
   1   -202.9942111 -0.202994E+03  0.360E-02    1.27       0.0  T
   2   -202.9942353 -0.242084E-04  0.230E-02    1.27       1.0  T
   3   -202.9943629 -0.127546E-03  0.108E-02    1.27       1.0  T
   4   -202.9944031 -0.401872E-04  0.721E-03    1.27       1.3  T
   5   -202.9944109 -0.781886E-05  0.200E-03    1.27       4.7  T
   6   -202.9944119 -0.968534E-06  0.562E-04    1.27      16.8  T
   7   -202.9944119 -0.777315E-07  0.263E-04    1.27      35.9  T
   8   -202.9944120 -0.242690E-07  0.103E-04    1.27      92.1  T
   9   -202.9944120 -0.262767E-08  0.213E-05    1.27     443.2  T
     SCC iter.                  ...        0 min,  0.453 sec
     gradient                   ...        0 min,  0.418 sec
 * total energy  :  -200.0182619 Eh     change       -0.1336324E-01 Eh
   gradient norm :     0.0364888 Eh/α   predicted    -0.1084728E-01 ( -18.83%)
   displ. norm   :     0.7685952 α      lambda       -0.1399058E-01
   maximum displ.:     0.4800942 α      in ANC's #32, #23, #13, ...

........................................................................
.............................. CYCLE    6 ..............................
........................................................................
   1   -203.0298348 -0.203030E+03  0.317E-02    1.27       0.0  T
   2   -203.0298610 -0.262749E-04  0.203E-02    1.27       1.0  T
   3   -203.0299486 -0.875176E-04  0.949E-03    1.27       1.0  T
   4   -203.0299712 -0.226265E-04  0.704E-03    1.27       1.3  T
   5   -203.0299792 -0.798852E-05  0.204E-03    1.27       4.6  T
   6   -203.0299805 -0.134636E-05  0.405E-04    1.27      23.3  T
   7   -203.0299806 -0.384548E-07  0.209E-04    1.27      45.1  T
   8   -203.0299806 -0.180407E-07  0.703E-05    1.27     134.5  T
   9   -203.0299806 -0.131308E-08  0.161E-05    1.27     587.2  T
     SCC iter.                  ...        0 min,  0.452 sec
     gradient                   ...        0 min,  0.418 sec
 * total energy  :  -200.0295245 Eh     change       -0.1126268E-01 Eh
   gradient norm :     0.0182471 Eh/α   predicted    -0.1112778E-01 (  -1.20%)
   displ. norm   :     0.7738799 α      lambda       -0.9304114E-02
   maximum displ.:     0.4775677 α      in ANC's #23, #32, #13, ...

........................................................................
.............................. CYCLE    7 ..............................
........................................................................
   1   -203.0620760 -0.203062E+03  0.198E-02    1.26       0.0  T
   2   -203.0620919 -0.159253E-04  0.116E-02    1.26       1.0  T
   3   -203.0621132 -0.213278E-04  0.597E-03    1.26       1.6  T
   4   -203.0621174 -0.417512E-05  0.433E-03    1.26       2.2  T
   5   -203.0621207 -0.328488E-05  0.135E-03    1.26       7.0  T
   6   -203.0621215 -0.811188E-06  0.184E-04    1.26      51.4  T
   7   -203.0621215 -0.734184E-08  0.932E-05    1.26     101.4  T
     SCC iter.                  ...        0 min,  0.350 sec
     gradient                   ...        0 min,  0.422 sec
 * total energy  :  -200.0364098 Eh     change       -0.6885288E-02 Eh
   gradient norm :     0.0233782 Eh/α   predicted    -0.7438119E-02 (   8.03%)
   displ. norm   :     0.8179786 α      lambda       -0.9085217E-02
   maximum displ.:     0.4876893 α      in ANC's #23, #32, #13, ...

........................................................................
.............................. CYCLE    8 ..............................
........................................................................
   1   -203.0883911 -0.203088E+03  0.140E-02    1.25       0.0  T
   2   -203.0884028 -0.117366E-04  0.803E-03    1.25       1.2  T
   3   -203.0884122 -0.932546E-05  0.388E-03    1.25       2.4  T
   4   -203.0884124 -0.265975E-06  0.194E-03    1.25       4.9  T
   5   -203.0884127 -0.224779E-06  0.938E-04    1.25      10.1  T
   6   -203.0884131 -0.440180E-06  0.979E-05    1.25      96.5  T
   7   -203.0884131 -0.176144E-08  0.380E-05    1.25     248.9  T
     SCC iter.                  ...        0 min,  0.351 sec
     gradient                   ...        0 min,  0.422 sec
 * total energy  :  -200.0405683 Eh     change       -0.4158461E-02 Eh
   gradient norm :     0.0269255 Eh/α   predicted    -0.7582026E-02 (  82.33%)
   displ. norm   :     0.5863264 α      lambda       -0.6742130E-02
   maximum displ.:     0.4156401 α      in ANC's #23, #32, #13, ...

........................................................................
.............................. CYCLE    9 ..............................
........................................................................
   1   -203.1128584 -0.203113E+03  0.144E-02    1.24       0.0  T
   2   -203.1128622 -0.388014E-05  0.937E-03    1.25       1.0  T
   3   -203.1128604  0.185370E-05  0.556E-03    1.25       1.7  T
   4   -203.1128613 -0.927742E-06  0.286E-03    1.25       3.3  T
   5   -203.1128651 -0.373567E-05  0.531E-04    1.25      17.8  T
   6   -203.1128652 -0.112600E-06  0.913E-05    1.25     103.4  T
   7   -203.1128652 -0.205617E-08  0.451E-05    1.25     209.5  T
     SCC iter.                  ...        0 min,  0.352 sec
     gradient                   ...        0 min,  0.422 sec
 * total energy  :  -200.0444000 Eh     change       -0.3831669E-02 Eh
   gradient norm :     0.0197046 Eh/α   predicted    -0.4529988E-02 (  18.22%)
   displ. norm   :     0.5213262 α      lambda       -0.4583566E-02
   maximum displ.:     0.3816386 α      in ANC's #23, #13, #60, ...

........................................................................
.............................. CYCLE   10 ..............................
........................................................................
   1   -203.1253119 -0.203125E+03  0.931E-03    1.24       0.0  T
   2   -203.1253183 -0.637321E-05  0.578E-03    1.24       1.6  T
   3   -203.1253232 -0.488426E-05  0.269E-03    1.24       3.5  T
   4   -203.1253234 -0.230122E-06  0.165E-03    1.24       5.7  T
   5   -203.1253240 -0.538538E-06  0.931E-04    1.24      10.1  T
   6   -203.1253242 -0.234253E-06  0.119E-04    1.24      79.6  T
   7   -203.1253242 -0.341944E-08  0.579E-05    1.24     163.1  T
     SCC iter.                  ...        0 min,  0.349 sec
     gradient                   ...        0 min,  0.422 sec
 * total energy  :  -200.0471921 Eh     change       -0.2792172E-02 Eh
   gradient norm :     0.0117603 Eh/α   predicted    -0.2914649E-02 (   4.39%)
   displ. norm   :     0.5444385 α      lambda       -0.2598152E-02
   maximum displ.:     0.3967620 α      in ANC's #23, #13, #9, ...

........................................................................
.............................. CYCLE   11 ..............................
........................................................................
   1   -203.1386515 -0.203139E+03  0.714E-03    1.24       0.0  T
   2   -203.1386540 -0.250085E-05  0.390E-03    1.24       2.4  T
   3   -203.1386554 -0.137483E-05  0.241E-03    1.24       3.9  T
   4   -203.1386556 -0.207200E-06  0.132E-03    1.24       7.1  T
   5   -203.1386561 -0.424795E-06  0.605E-04    1.24      15.6  T
   6   -203.1386562 -0.131372E-06  0.666E-05    1.24     141.8  T
   7   -203.1386562 -0.102210E-08  0.315E-05    1.24     299.7  T
     SCC iter.                  ...        0 min,  0.349 sec
     gradient                   ...        0 min,  0.420 sec
 * total energy  :  -200.0493583 Eh     change       -0.2166180E-02 Eh
   gradient norm :     0.0087671 Eh/α   predicted    -0.1684146E-02 ( -22.25%)
   displ. norm   :     0.6130164 α      lambda       -0.2318360E-02
   maximum displ.:     0.4288632 α      in ANC's #23, #13, #9, ...

........................................................................
.............................. CYCLE   12 ..............................
........................................................................
   1   -203.1468745 -0.203147E+03  0.630E-03    1.24       0.0  T
   2   -203.1468774 -0.285304E-05  0.332E-03    1.24       2.8  T
   3   -203.1468786 -0.125133E-05  0.167E-03    1.24       5.6  T
   4   -203.1468787 -0.937851E-07  0.939E-04    1.24      10.1  T
   5   -203.1468788 -0.112241E-06  0.609E-04    1.24      15.5  T
   6   -203.1468789 -0.123571E-06  0.624E-05    1.24     151.3  T
   7   -203.1468789 -0.814111E-09  0.284E-05    1.24     332.3  T
     SCC iter.                  ...        0 min,  0.355 sec
     gradient                   ...        0 min,  0.422 sec
 * total energy  :  -200.0510242 Eh     change       -0.1665846E-02 Eh
   gradient norm :     0.0087199 Eh/α   predicted    -0.1594790E-02 (  -4.27%)
   displ. norm   :     0.6330582 α      lambda       -0.1936867E-02
   maximum displ.:     0.4081776 α      in ANC's #23, #13, #8, ...

........................................................................
.............................. CYCLE   13 ..............................
........................................................................
   1   -203.1509867 -0.203151E+03  0.601E-03    1.24       0.0  T
   2   -203.1509894 -0.267875E-05  0.335E-03    1.24       2.8  T
   3   -203.1509906 -0.118428E-05  0.142E-03    1.24       6.7  T
   4   -203.1509905  0.831536E-07  0.117E-03    1.24       8.1  T
   5   -203.1509908 -0.256733E-06  0.370E-04    1.24      25.6  T
   6   -203.1509908 -0.642163E-07  0.649E-05    1.24     145.5  T
   7   -203.1509908 -0.106493E-08  0.279E-05    1.24     338.3  T
     SCC iter.                  ...        0 min,  0.356 sec
     gradient                   ...        0 min,  0.421 sec
 * total energy  :  -200.0520201 Eh     change       -0.9959272E-03 Eh
   gradient norm :     0.0112964 Eh/α   predicted    -0.1356549E-02 (  36.21%)
   displ. norm   :     0.4172032 α      lambda       -0.1007786E-02
   maximum displ.:     0.2591600 α      in ANC's #23, #13, #9, ...

........................................................................
.............................. CYCLE   14 ..............................
........................................................................
   1   -203.1560526 -0.203156E+03  0.532E-03    1.23       0.0  T
   2   -203.1560532 -0.551782E-06  0.306E-03    1.23       3.1  T
   3   -203.1560535 -0.354705E-06  0.199E-03    1.23       4.7  T
   4   -203.1560544 -0.876401E-06  0.121E-03    1.23       7.8  T
   5   -203.1560547 -0.266066E-06  0.305E-04    1.23      31.0  T
   6   -203.1560547 -0.386532E-07  0.380E-05    1.23     248.6  T
   7   -203.1560547 -0.222826E-09  0.216E-05    1.23     437.5  T
     SCC iter.                  ...        0 min,  0.355 sec
     gradient                   ...        0 min,  0.422 sec
 * total energy  :  -200.0526845 Eh     change       -0.6644309E-03 Eh
   gradient norm :     0.0077095 Eh/α   predicted    -0.5916012E-03 ( -10.96%)
   displ. norm   :     0.3566169 α      lambda       -0.5165139E-03
   maximum displ.:     0.2386378 α      in ANC's #13, #23, #9, ...

........................................................................
.............................. CYCLE   15 ..............................
........................................................................
   1   -203.1596397 -0.203160E+03  0.389E-03    1.23       0.0  T
   2   -203.1596401 -0.313537E-06  0.244E-03    1.23       3.9  T
   3   -203.1596408 -0.782313E-06  0.123E-03    1.23       7.7  T
   4   -203.1596412 -0.312199E-06  0.954E-04    1.23       9.9  T
   5   -203.1596413 -0.169402E-06  0.228E-04    1.23      41.4  T
   6   -203.1596413 -0.195800E-07  0.338E-05    1.23     279.5  T
   7   -203.1596413 -0.208189E-09  0.168E-05    1.23     562.1  T
     SCC iter.                  ...        0 min,  0.353 sec
     gradient                   ...        0 min,  0.422 sec
 * total energy  :  -200.0530154 Eh     change       -0.3308398E-03 Eh
   gradient norm :     0.0045701 Eh/α   predicted    -0.2911017E-03 ( -12.01%)
   displ. norm   :     0.2497295 α      lambda       -0.2782195E-03
   maximum displ.:     0.1831315 α      in ANC's #13, #9, #11, ...

........................................................................
.............................. CYCLE   16 ..............................
........................................................................
   1   -203.1602516 -0.203160E+03  0.196E-03    1.22       0.0  T
   2   -203.1602517 -0.185869E-06  0.111E-03    1.22       8.5  T
   3   -203.1602518 -0.930434E-07  0.551E-04    1.22      17.1  T
   4   -203.1602519 -0.299479E-07  0.508E-04    1.22      18.6  T
   5   -203.1602519 -0.644558E-07  0.959E-05    1.22      98.5  T
   6   -203.1602519 -0.261360E-08  0.181E-05    1.22     521.5  T
     SCC iter.                  ...        0 min,  0.303 sec
     gradient                   ...        0 min,  0.421 sec
 * total energy  :  -200.0532331 Eh     change       -0.2177793E-03 Eh
   gradient norm :     0.0042718 Eh/α   predicted    -0.1477858E-03 ( -32.14%)
   displ. norm   :     0.2458841 α      lambda       -0.2688463E-03
   maximum displ.:     0.1743257 α      in ANC's #13, #11, #9, ...

........................................................................
.............................. CYCLE   17 ..............................
........................................................................
   1   -203.1591055 -0.203159E+03  0.185E-03    1.22       0.0  T
   2   -203.1591057 -0.254547E-06  0.903E-04    1.22      10.5  T
   3   -203.1591058 -0.584218E-07  0.484E-04    1.22      19.5  T
   4   -203.1591058  0.625081E-08  0.370E-04    1.22      25.6  T
   5   -203.1591058 -0.395091E-07  0.108E-04    1.22      87.4  T
   6   -203.1591058 -0.245601E-08  0.152E-05    1.22     623.2  T
     SCC iter.                  ...        0 min,  0.298 sec
     gradient                   ...        0 min,  0.423 sec
 * total energy  :  -200.0534550 Eh     change       -0.2218497E-03 Eh
   gradient norm :     0.0041647 Eh/α   predicted    -0.1425511E-03 ( -35.74%)
   displ. norm   :     0.3426308 α      lambda       -0.3398085E-03
   maximum displ.:     0.2227995 α      in ANC's #13, #11, #9, ...

........................................................................
.............................. CYCLE   18 ..............................
........................................................................
   1   -203.1565191 -0.203157E+03  0.241E-03    1.22       0.0  T
   2   -203.1565194 -0.329664E-06  0.123E-03    1.22       7.7  T
   3   -203.1565196 -0.147842E-06  0.711E-04    1.22      13.3  T
   4   -203.1565196 -0.469909E-07  0.494E-04    1.22      19.1  T
   5   -203.1565197 -0.588805E-07  0.125E-04    1.22      75.8  T
   6   -203.1565197 -0.351636E-08  0.251E-05    1.22     377.1  T
     SCC iter.                  ...        0 min,  0.298 sec
     gradient                   ...        0 min,  0.424 sec
 * total energy  :  -200.0536869 Eh     change       -0.2319584E-03 Eh
   gradient norm :     0.0051839 Eh/α   predicted    -0.1898508E-03 ( -18.15%)
   displ. norm   :     0.3241712 α      lambda       -0.2882456E-03
   maximum displ.:     0.2109691 α      in ANC's #13, #9, #11, ...

........................................................................
.............................. CYCLE   19 ..............................
........................................................................
   1   -203.1551883 -0.203155E+03  0.175E-03    1.23       0.0  T
   2   -203.1551885 -0.165951E-06  0.784E-04    1.22      12.1  T
   3   -203.1551886 -0.696551E-07  0.474E-04    1.23      19.9  T
   4   -203.1551886 -0.499573E-07  0.277E-04    1.22      34.1  T
   5   -203.1551886 -0.121459E-07  0.101E-04    1.22      93.4  T
   6   -203.1551886 -0.292150E-08  0.163E-05    1.22     578.6  T
     SCC iter.                  ...        0 min,  0.301 sec
     gradient                   ...        0 min,  0.420 sec
 * total energy  :  -200.0539040 Eh     change       -0.2170241E-03 Eh
   gradient norm :     0.0049903 Eh/α   predicted    -0.1592696E-03 ( -26.61%)
   displ. norm   :     0.3142540 α      lambda       -0.2114515E-03
   maximum displ.:     0.2062298 α      in ANC's #13, #9, #11, ...

........................................................................
.............................. CYCLE   20 ..............................
........................................................................
   1   -203.1564910 -0.203156E+03  0.154E-03    1.23       0.0  T
   2   -203.1564911 -0.144688E-06  0.723E-04    1.23      13.1  T
   3   -203.1564911 -0.205175E-07  0.378E-04    1.23      25.0  T
   4   -203.1564911  0.875787E-08  0.334E-04    1.23      28.3  T
   5   -203.1564911 -0.299591E-07  0.863E-05    1.23     109.5  T
   6   -203.1564912 -0.241872E-08  0.162E-05    1.23     581.8  T
     SCC iter.                  ...        0 min,  0.306 sec
     gradient                   ...        0 min,  0.420 sec
 * total energy  :  -200.0540753 Eh     change       -0.1713806E-03 Eh
   gradient norm :     0.0040199 Eh/α   predicted    -0.1161685E-03 ( -32.22%)
   displ. norm   :     0.3245637 α      lambda       -0.1741079E-03
   maximum displ.:     0.2147153 α      in ANC's #13, #9, #11, ...
 * RMSD in coord.:     0.6643877 α      energy gain  -0.2502664E+00 Eh

generating ANC from model Hessian ...
Using Lindh-Hessian (1995)
 Shifting diagonal of input Hessian by    1.0024883389852546E-002
 Lowest  eigenvalues of input Hessian
    0.010000    0.010005    0.010018    0.000000    0.000000    0.000000
    0.000000    0.000000    0.000000    0.010069    0.010084    0.010232
    0.010256    0.010622    0.010713    0.010866    0.010873    0.010883
 Highest eigenvalues
    2.111052    2.111205    2.146663    2.146697    2.375011    2.884151


........................................................................
.............................. CYCLE   21 ..............................
........................................................................
   1   -203.1588931 -0.203159E+03  0.199E-03    1.23       0.0  T
   2   -203.1588933 -0.221715E-06  0.115E-03    1.23       8.2  T
   3   -203.1588934 -0.165146E-06  0.575E-04    1.23      16.4  T
   4   -203.1588935 -0.342212E-07  0.479E-04    1.23      19.7  T
   5   -203.1588935 -0.605291E-07  0.103E-04    1.23      92.2  T
   6   -203.1588935 -0.129810E-08  0.202E-05    1.23     467.8  T
     SCC iter.                  ...        0 min,  0.300 sec
     gradient                   ...        0 min,  0.424 sec
 * total energy  :  -200.0542030 Eh     change       -0.1276665E-03 Eh
   gradient norm :     0.0022599 Eh/α   predicted     0.0000000E+00 (-100.00%)
   displ. norm   :     0.0340853 α      lambda       -0.1517871E-04
   maximum displ.:     0.0231236 α      in ANC's #12, #14, #19, ...

........................................................................
.............................. CYCLE   22 ..............................
........................................................................
   1   -203.1596037 -0.203160E+03  0.572E-04    1.23       0.0  T
   2   -203.1596037 -0.102303E-07  0.371E-04    1.23      25.5  T
   3   -203.1596037 -0.293783E-07  0.188E-04    1.23      50.1  T
   4   -203.1596037 -0.792164E-08  0.120E-04    1.23      78.7  T
     SCC iter.                  ...        0 min,  0.205 sec
     gradient                   ...        0 min,  0.421 sec
 * total energy  :  -200.0542208 Eh     change       -0.1778698E-04 Eh
   gradient norm :     0.0013142 Eh/α   predicted    -0.1081672E-04 ( -39.19%)
   displ. norm   :     0.1638185 α      lambda       -0.4888812E-04
   maximum displ.:     0.1067297 α      in ANC's #12, #14, #19, ...

........................................................................
.............................. CYCLE   23 ..............................
........................................................................
   1   -203.1617224 -0.203162E+03  0.221E-03    1.22       0.0  T
   2   -203.1617225 -0.103639E-06  0.149E-03    1.22       6.3  T
   3   -203.1617231 -0.607817E-06  0.674E-04    1.22      14.0  T
   4   -203.1617233 -0.128648E-06  0.419E-04    1.22      22.5  T
   5   -203.1617233 -0.217275E-07  0.145E-04    1.22      65.2  T
   6   -203.1617233 -0.513339E-08  0.249E-05    1.22     379.1  T
     SCC iter.                  ...        0 min,  0.294 sec
     gradient                   ...        0 min,  0.420 sec
 * total energy  :  -200.0542611 Eh     change       -0.4031043E-04 Eh
   gradient norm :     0.0028930 Eh/α   predicted    -0.2474153E-04 ( -38.62%)
   displ. norm   :     0.0603620 α      lambda       -0.1996402E-04
   maximum displ.:     0.0405740 α      in ANC's #12, #14, #5, ...

........................................................................
.............................. CYCLE   24 ..............................
........................................................................
   1   -203.1614269 -0.203161E+03  0.514E-04    1.22       0.0  T
   2   -203.1614269 -0.110754E-07  0.336E-04    1.22      28.2  T
   3   -203.1614270 -0.118263E-07  0.160E-04    1.22      59.0  T
   4   -203.1614270  0.183775E-08  0.127E-04    1.22      74.4  T
     SCC iter.                  ...        0 min,  0.201 sec
     gradient                   ...        0 min,  0.424 sec
 * total energy  :  -200.0542782 Eh     change       -0.1710002E-04 Eh
   gradient norm :     0.0024312 Eh/α   predicted    -0.1001880E-04 ( -41.41%)
   displ. norm   :     0.1087444 α      lambda       -0.3550085E-04
   maximum displ.:     0.0714444 α      in ANC's #12, #14, #19, ...

........................................................................
.............................. CYCLE   25 ..............................
........................................................................
   1   -203.1607370 -0.203161E+03  0.980E-04    1.22       0.0  T
   2   -203.1607371 -0.536780E-07  0.607E-04    1.22      15.6  T
   3   -203.1607371 -0.318254E-07  0.304E-04    1.22      31.1  T
   4   -203.1607371  0.754881E-08  0.225E-04    1.22      42.0  T
   5   -203.1607371 -0.151815E-07  0.784E-05    1.22     120.5  T
   6   -203.1607371 -0.211085E-08  0.102E-05    1.22     925.4  T
     SCC iter.                  ...        0 min,  0.305 sec
     gradient                   ...        0 min,  0.420 sec
 * total energy  :  -200.0543066 Eh     change       -0.2842783E-04 Eh
   gradient norm :     0.0013859 Eh/α   predicted    -0.1797344E-04 ( -36.78%)
   displ. norm   :     0.2193799 α      lambda       -0.3386888E-04
   maximum displ.:     0.1417257 α      in ANC's #12, #14, #5, ...

........................................................................
.............................. CYCLE   26 ..............................
........................................................................
   1   -203.1599768 -0.203160E+03  0.142E-03    1.22       0.0  T
   2   -203.1599769 -0.111566E-06  0.860E-04    1.22      11.0  T
   3   -203.1599770 -0.109650E-06  0.426E-04    1.22      22.2  T
   4   -203.1599770 -0.117619E-07  0.301E-04    1.22      31.4  T
   5   -203.1599770 -0.216746E-07  0.119E-04    1.22      79.5  T
   6   -203.1599770 -0.385398E-08  0.151E-05    1.22     624.7  T
     SCC iter.                  ...        0 min,  0.304 sec
     gradient                   ...        0 min,  0.423 sec
 * total energy  :  -200.0543406 Eh     change       -0.3399184E-04 Eh
   gradient norm :     0.0024852 Eh/α   predicted    -0.1730079E-04 ( -49.10%)
   displ. norm   :     0.1117612 α      lambda       -0.2253499E-04
   maximum displ.:     0.0720641 α      in ANC's #12, #14, #5, ...

........................................................................
.............................. CYCLE   27 ..............................
........................................................................
   1   -203.1602420 -0.203160E+03  0.425E-04    1.22       0.0  T
   2   -203.1602420 -0.113745E-07  0.214E-04    1.22      44.1  T
   3   -203.1602420 -0.459349E-08  0.128E-04    1.22      73.9  T
   4   -203.1602420 -0.154407E-08  0.812E-05    1.22     116.4  T
     SCC iter.                  ...        0 min,  0.200 sec
     gradient                   ...        0 min,  0.423 sec
 * total energy  :  -200.0543590 Eh     change       -0.1834300E-04 Eh
   gradient norm :     0.0023351 Eh/α   predicted    -0.1140893E-04 ( -37.80%)
   displ. norm   :     0.2049583 α      lambda       -0.3971702E-04
   maximum displ.:     0.1291182 α      in ANC's #12, #14, #5, ...

........................................................................
.............................. CYCLE   28 ..............................
........................................................................
   1   -203.1609900 -0.203161E+03  0.874E-04    1.22       0.0  T
   2   -203.1609901 -0.537869E-07  0.424E-04    1.22      22.3  T
   3   -203.1609901 -0.652295E-08  0.236E-04    1.22      40.1  T
   4   -203.1609901  0.557904E-08  0.137E-04    1.22      69.0  T
   5   -203.1609901 -0.625704E-08  0.487E-05    1.22     194.1  T
     SCC iter.                  ...        0 min,  0.244 sec
     gradient                   ...        0 min,  0.423 sec
 * total energy  :  -200.0543890 Eh     change       -0.3003662E-04 Eh
   gradient norm :     0.0014438 Eh/α   predicted    -0.2069323E-04 ( -31.11%)
   displ. norm   :     0.3027510 α      lambda       -0.2568486E-04
   maximum displ.:     0.1895328 α      in ANC's #12, #14, #5, ...

........................................................................
.............................. CYCLE   29 ..............................
........................................................................
   1   -203.1612973 -0.203161E+03  0.111E-03    1.22       0.0  T
   2   -203.1612974 -0.952790E-07  0.661E-04    1.22      14.3  T
   3   -203.1612974 -0.475585E-07  0.328E-04    1.22      28.8  T
   4   -203.1612974 -0.480298E-09  0.279E-04    1.22      33.9  T
   5   -203.1612974 -0.210981E-07  0.489E-05    1.22     193.4  T
   6   -203.1612974 -0.380822E-09  0.160E-05    1.22     591.5  T
     SCC iter.                  ...        0 min,  0.301 sec
     gradient                   ...        0 min,  0.421 sec
 * total energy  :  -200.0544100 Eh     change       -0.2098781E-04 Eh
   gradient norm :     0.0015187 Eh/α   predicted    -0.1336678E-04 ( -36.31%)
   displ. norm   :     0.0585990 α      lambda       -0.7644412E-05
   maximum displ.:     0.0305493 α      in ANC's #12, #10, #5, ...

........................................................................
.............................. CYCLE   30 ..............................
........................................................................
   1   -203.1619096 -0.203162E+03  0.630E-04    1.22       0.0  T
   2   -203.1619096  0.168600E-08  0.432E-04    1.22      21.9  T
   3   -203.1619096 -0.303814E-07  0.258E-04    1.22      36.6  T
   4   -203.1619097 -0.164968E-07  0.129E-04    1.22      73.1  T
   5   -203.1619097 -0.225745E-08  0.262E-05    1.22     360.8  T
     SCC iter.                  ...        0 min,  0.253 sec
     gradient                   ...        0 min,  0.422 sec
 * total energy  :  -200.0544187 Eh     change       -0.8746800E-05 Eh
   gradient norm :     0.0009509 Eh/α   predicted    -0.3830902E-05 ( -56.20%)
   displ. norm   :     0.0978243 α      lambda       -0.1086648E-04
   maximum displ.:     0.0569904 α      in ANC's #10, #12, #17, ...

........................................................................
.............................. CYCLE   31 ..............................
........................................................................
   1   -203.1617927 -0.203162E+03  0.804E-04    1.22       0.0  T
   2   -203.1617927 -0.104406E-07  0.507E-04    1.22      18.7  T
   3   -203.1617928 -0.696381E-07  0.261E-04    1.22      36.1  T
   4   -203.1617928 -0.267141E-07  0.130E-04    1.22      72.6  T
   5   -203.1617928 -0.178574E-08  0.403E-05    1.22     234.8  T
     SCC iter.                  ...        0 min,  0.252 sec
     gradient                   ...        0 min,  0.420 sec
 * total energy  :  -200.0544296 Eh     change       -0.1081084E-04 Eh
   gradient norm :     0.0009862 Eh/α   predicted    -0.5457342E-05 ( -49.52%)
   displ. norm   :     0.0839385 α      lambda       -0.8032221E-05
   maximum displ.:     0.0543140 α      in ANC's #10, #17, #12, ...

........................................................................
.............................. CYCLE   32 ..............................
........................................................................
   1   -203.1611164 -0.203161E+03  0.512E-04    1.22       0.0  T
   2   -203.1611164 -0.140823E-07  0.222E-04    1.22      42.5  T
   3   -203.1611164 -0.185736E-09  0.166E-04    1.22      56.9  T
   4   -203.1611164 -0.416708E-08  0.935E-05    1.22     101.1  T
     SCC iter.                  ...        0 min,  0.195 sec
     gradient                   ...        0 min,  0.422 sec
 * total energy  :  -200.0544372 Eh     change       -0.7610995E-05 Eh
   gradient norm :     0.0012251 Eh/α   predicted    -0.4030004E-05 ( -47.05%)
   displ. norm   :     0.0603831 α      lambda       -0.5945301E-05
   maximum displ.:     0.0408880 α      in ANC's #10, #17, #19, ...

........................................................................
.............................. CYCLE   33 ..............................
........................................................................
   1   -203.1611199 -0.203161E+03  0.302E-04    1.22       0.0  T
   2   -203.1611199 -0.395147E-08  0.215E-04    1.22      44.0  T
   3   -203.1611199 -0.104360E-07  0.869E-05    1.22     108.7  T
   4   -203.1611199 -0.577501E-09  0.681E-05    1.22     138.7  T
     SCC iter.                  ...        0 min,  0.206 sec
     gradient                   ...        0 min,  0.419 sec
 * total energy  :  -200.0544446 Eh     change       -0.7471016E-05 Eh
   gradient norm :     0.0009384 Eh/α   predicted    -0.2978597E-05 ( -60.13%)
   displ. norm   :     0.0841235 α      lambda       -0.8084447E-05
   maximum displ.:     0.0583799 α      in ANC's #10, #19, #17, ...

........................................................................
.............................. CYCLE   34 ..............................
........................................................................
   1   -203.1610565 -0.203161E+03  0.552E-04    1.22       0.0  T
   2   -203.1610565 -0.303740E-08  0.377E-04    1.22      25.1  T
   3   -203.1610565 -0.401470E-07  0.162E-04    1.22      58.3  T
   4   -203.1610565 -0.858071E-08  0.105E-04    1.22      90.3  T
     SCC iter.                  ...        0 min,  0.206 sec
     gradient                   ...        0 min,  0.422 sec
 * total energy  :  -200.0544539 Eh     change       -0.9284211E-05 Eh
   gradient norm :     0.0004391 Eh/α   predicted    -0.4056525E-05 ( -56.31%)
   displ. norm   :     0.0880351 α      lambda       -0.6100657E-05
   maximum displ.:     0.0611488 α      in ANC's #10, #12, #8, ...

........................................................................
.............................. CYCLE   35 ..............................
........................................................................
   1   -203.1610618 -0.203161E+03  0.425E-04    1.22       0.0  T
   2   -203.1610618 -0.420565E-08  0.239E-04    1.22      39.6  T
   3   -203.1610618 -0.107996E-07  0.149E-04    1.22      63.5  T
   4   -203.1610618 -0.928645E-08  0.705E-05    1.22     134.0  T
     SCC iter.                  ...        0 min,  0.197 sec
     gradient                   ...        0 min,  0.422 sec
 * total energy  :  -200.0544607 Eh     change       -0.6801659E-05 Eh
   gradient norm :     0.0007135 Eh/α   predicted    -0.3064162E-05 ( -54.95%)
   displ. norm   :     0.0793689 α      lambda       -0.4781136E-05
   maximum displ.:     0.0542425 α      in ANC's #10, #12, #5, ...

........................................................................
.............................. CYCLE   36 ..............................
........................................................................
   1   -203.1613416 -0.203161E+03  0.237E-04    1.22       0.0  T
   2   -203.1613416 -0.161853E-08  0.112E-04    1.22      84.4  T
   3   -203.1613416 -0.122071E-08  0.893E-05    1.22     105.9  T
     SCC iter.                  ...        0 min,  0.156 sec
     gradient                   ...        0 min,  0.422 sec
 * total energy  :  -200.0544667 Eh     change       -0.6022255E-05 Eh
   gradient norm :     0.0007774 Eh/α   predicted    -0.2399654E-05 ( -60.15%)
   displ. norm   :     0.0951573 α      lambda       -0.5764015E-05
   maximum displ.:     0.0624024 α      in ANC's #10, #12, #5, ...

........................................................................
.............................. CYCLE   37 ..............................
........................................................................
   1   -203.1615905 -0.203162E+03  0.243E-04    1.22       0.0  T
   2   -203.1615905  0.126360E-08  0.189E-04    1.22      50.0  T
   3   -203.1615905 -0.106224E-07  0.796E-05    1.22     118.6  T
     SCC iter.                  ...        0 min,  0.154 sec
     gradient                   ...        0 min,  0.422 sec
 * total energy  :  -200.0544744 Eh     change       -0.7701903E-05 Eh
   gradient norm :     0.0006615 Eh/α   predicted    -0.2894381E-05 ( -62.42%)
   displ. norm   :     0.1408303 α      lambda       -0.8502229E-05
   maximum displ.:     0.0912619 α      in ANC's #10, #12, #5, ...

........................................................................
.............................. CYCLE   38 ..............................
........................................................................
   1   -203.1617858 -0.203162E+03  0.366E-04    1.22       0.0  T
   2   -203.1617858 -0.716142E-09  0.259E-04    1.22      36.5  T
   3   -203.1617858 -0.173635E-07  0.116E-04    1.22      81.8  T
   4   -203.1617858 -0.274139E-08  0.736E-05    1.22     128.4  T
     SCC iter.                  ...        0 min,  0.199 sec
     gradient                   ...        0 min,  0.425 sec
 * total energy  :  -200.0544851 Eh     change       -0.1069416E-04 Eh
   gradient norm :     0.0004912 Eh/α   predicted    -0.4292548E-05 ( -59.86%)
   displ. norm   :     0.1743872 α      lambda       -0.9633726E-05
   maximum displ.:     0.1137027 α      in ANC's #10, #12, #5, ...

........................................................................
.............................. CYCLE   39 ..............................
........................................................................
   1   -203.1618219 -0.203162E+03  0.398E-04    1.22       0.0  T
   2   -203.1618219 -0.129737E-08  0.256E-04    1.22      37.0  T
   3   -203.1618219 -0.176035E-07  0.130E-04    1.22      72.8  T
   4   -203.1618219 -0.518014E-08  0.654E-05    1.22     144.5  T
     SCC iter.                  ...        0 min,  0.208 sec
     gradient                   ...        0 min,  0.422 sec
 * total energy  :  -200.0544966 Eh     change       -0.1142004E-04 Eh
   gradient norm :     0.0005748 Eh/α   predicted    -0.4884241E-05 ( -57.23%)
   displ. norm   :     0.1672302 α      lambda       -0.7778242E-05
   maximum displ.:     0.1111310 α      in ANC's #10, #12, #5, ...

........................................................................
.............................. CYCLE   40 ..............................
........................................................................
   1   -203.1617509 -0.203162E+03  0.324E-04    1.22       0.0  T
   2   -203.1617509 -0.499776E-08  0.176E-04    1.22      53.7  T
   3   -203.1617509 -0.426834E-08  0.108E-04    1.22      87.6  T
     SCC iter.                  ...        0 min,  0.151 sec
     gradient                   ...        0 min,  0.422 sec
 * total energy  :  -200.0545063 Eh     change       -0.9762575E-05 Eh
   gradient norm :     0.0006226 Eh/α   predicted    -0.3939772E-05 ( -59.64%)
   displ. norm   :     0.1568300 α      lambda       -0.7042058E-05
   maximum displ.:     0.1070287 α      in ANC's #10, #12, #1, ...

........................................................................
.............................. CYCLE   41 ..............................
........................................................................
   1   -203.1617801 -0.203162E+03  0.369E-04    1.22       0.0  T
   2   -203.1617801 -0.684875E-08  0.214E-04    1.22      44.2  T
   3   -203.1617801 -0.671309E-08  0.111E-04    1.22      85.0  T
   4   -203.1617801 -0.966907E-10  0.664E-05    1.22     142.3  T
     SCC iter.                  ...        0 min,  0.203 sec
     gradient                   ...        0 min,  0.421 sec
 * total energy  :  -200.0545154 Eh     change       -0.9029148E-05 Eh
   gradient norm :     0.0005427 Eh/α   predicted    -0.3562813E-05 ( -60.54%)
   displ. norm   :     0.1721555 α      lambda       -0.7624294E-05
   maximum displ.:     0.1201186 α      in ANC's #10, #12, #1, ...

........................................................................
.............................. CYCLE   42 ..............................
........................................................................
   1   -203.1617714 -0.203162E+03  0.363E-04    1.22       0.0  T
   2   -203.1617714 -0.721940E-08  0.212E-04    1.22      44.5  T
   3   -203.1617714 -0.747744E-08  0.105E-04    1.22      89.8  T
   4   -203.1617714 -0.301071E-09  0.678E-05    1.22     139.4  T
     SCC iter.                  ...        0 min,  0.203 sec
     gradient                   ...        0 min,  0.422 sec
 * total energy  :  -200.0545252 Eh     change       -0.9800829E-05 Eh
   gradient norm :     0.0004842 Eh/α   predicted    -0.3866648E-05 ( -60.55%)
   displ. norm   :     0.1957150 α      lambda       -0.7976808E-05
   maximum displ.:     0.1382152 α      in ANC's #10, #12, #1, ...
 * RMSD in coord.:     0.2225480 α      energy gain  -0.4498075E-03 Eh

generating ANC from model Hessian ...
Using Lindh-Hessian (1995)
 Shifting diagonal of input Hessian by    1.0027952587338152E-002
 Lowest  eigenvalues of input Hessian
    0.010000    0.010012    0.010021    0.000000    0.000000    0.000000
    0.000000    0.000000    0.000000    0.010076    0.010201    0.010241
    0.010269    0.010658    0.010728    0.010834    0.010840    0.010841
 Highest eigenvalues
    2.111831    2.112328    2.148583    2.148633    2.377684    2.888236


........................................................................
.............................. CYCLE   43 ..............................
........................................................................
   1   -203.1615455 -0.203162E+03  0.357E-04    1.22       0.0  T
   2   -203.1615456 -0.571507E-08  0.198E-04    1.22      47.7  T
   3   -203.1615456 -0.500660E-08  0.109E-04    1.22      87.0  T
     SCC iter.                  ...        0 min,  0.152 sec
     gradient                   ...        0 min,  0.424 sec
 * total energy  :  -200.0545352 Eh     change       -0.1007759E-04 Eh
   gradient norm :     0.0004407 Eh/α   predicted     0.0000000E+00 (-100.00%)
   displ. norm   :     0.0167298 α      lambda       -0.1921333E-06
   maximum displ.:     0.0084505 α      in ANC's #23, #12, #8, ...

........................................................................
.............................. CYCLE   44 ..............................
........................................................................
   1   -203.1619866 -0.203162E+03  0.194E-04    1.22       0.0  T
   2   -203.1619866  0.292999E-09  0.129E-04    1.22      73.3  T
   3   -203.1619866 -0.151917E-08  0.853E-05    1.22     110.8  T
     SCC iter.                  ...        0 min,  0.152 sec
     gradient                   ...        0 min,  0.422 sec
 * total energy  :  -200.0545365 Eh     change       -0.1272188E-05 Eh
   gradient norm :     0.0004604 Eh/α   predicted    -0.9343809E-06 ( -26.55%)
   displ. norm   :     0.0586352 α      lambda       -0.5811746E-05
   maximum displ.:     0.0261620 α      in ANC's #12, #23, #8, ...

   *** GEOMETRY OPTIMIZATION CONVERGED AFTER 44 ITERATIONS ***

------------------------------------------------------------------------
 total energy gain   :        -0.2507276 Eh     -157.3339 kcal/mol
 total RMSD          :         0.7403392 a0        0.3918 Å
 total power (kW/mol):       -14.9610261 (step)  -16.5836 (real)
------------------------------------------------------------------------

 ANCopt (total)                0 d,  0 h,  0 min, 39.695 sec
 optimizer setup                ...        0 min,  0.000 sec (  0.001%)
 model hessian                  ...        0 min,  0.177 sec (  0.445%)
 ANC generation                 ...        0 min,  0.072 sec (  0.181%)
 coordinate transformation      ...        0 min,  0.006 sec (  0.016%)
 single point calculation       ...        0 min, 39.372 sec ( 99.187%)
 optimization log               ...        0 min,  0.033 sec (  0.083%)
 hessian update                 ...        0 min,  0.006 sec (  0.016%)
 rational function              ...        0 min,  0.022 sec (  0.054%)

================
 final structure:
================
112
 xtb: 6.5.1 (b24c23e)
Ni          12.37469857294710       -0.05247829989354       -0.01122566893055
C            8.97959046296636       -0.07201448288559       -0.05772796304265
C            9.63317847419643       -1.28616117043024       -0.03660263990414
C            8.95405979145214       -2.54582323173592       -0.01960789056592
C            9.90743063476643       -3.49886236911175        0.09803925369563
C           11.16977155475458       -2.82023989538344        0.14230126883855
N           10.99178192881707       -1.46277542577335        0.04555698215156
C           12.38456104373962       -3.46175366917157        0.34256331811561
C           12.38879436486272       -4.93546012990019        0.50735964405254
C           12.75070937765548       -5.52560188940704        1.71712011576783
C           12.73533719913287       -6.90744172400160        1.82485106618386
N           12.39408605468236       -7.70829327325739        0.82059162558965
C           12.05071513981774       -7.15292378395156       -0.33697936536205
C           12.03002986369765       -5.78190922566332       -0.54027451318816
C           13.59548410648543       -2.78550309243981        0.39290062837007
C           14.85947690127562       -3.43638995082742        0.56095035103358
C           15.81017159251741       -2.47757641015779        0.45589911657628
N           13.77144351037492       -1.43406422173836        0.19689213749326
C           15.12609783219565       -1.24598820397430        0.22021912176775
C           15.79008031130905       -0.03841097834045       -0.00997903190647
C           15.11483987628850        1.16495354632273       -0.22982343808321
C           15.78654683670585        2.39899540400435       -0.48665703096786
C           14.82857090598583        3.35270745485859       -0.57125954672494
C           13.57367413077858        2.69794267827610       -0.35729690804066
N           13.75977926321889        1.34553320169684       -0.17971105290120
C           12.35554565063875        3.36280927040854       -0.31686888277185
C           12.34791760681658        4.83821315881443       -0.44984362495998
C           11.70315851304217        5.46433834859459       -1.51592674822523
C           11.72398852592542        6.84755774858550       -1.59972547495165
N           12.33061157701613        7.61834440733773       -0.70282840938830
C           12.94623790478834        7.02942801840650        0.31729440173631
C           12.98442325518624        5.65405206821557        0.48456786541997
C           11.14305575057953        2.70259595861985       -0.16644975869719
C            9.87521797055361        3.36803767259184       -0.09105139890209
C            8.92910025569773        2.40235774136584       -0.02952869411955
C            9.61993656470985        1.14935131580870       -0.05200234880869
N           10.97782405693883        1.34147876688638       -0.10688950801873
H            7.89590383194807       -0.07802581188456       -0.06903004583572
H            7.88371984458735       -2.66352333621929       -0.07780672813317
H            9.78025514690542       -4.56719978979679        0.16270505145673
H           13.02698525333451       -4.91079021642494        2.56538512241089
H           13.00849641571167       -7.39112802304156        2.75812368315411
H           11.77975937377200       -7.83366286203327       -1.13870363274506
H           11.75226806644532       -5.37311015139461       -1.50444015206490
H           14.99197619814185       -4.49362718165237        0.72243416936621
H           16.88139861043130       -2.58024520545392        0.51987438407267
H           16.85453315866355        2.50554799815261       -0.58724560975780
H           14.94996326265503        4.40537933103651       -0.76738175670926
H           11.20560528972294        4.87515815125953       -2.27701284404790
H           11.23191102831608        7.35780048889602       -2.42256473608285
H           13.43120373771390        7.68592106905417        1.03379694425760
H           13.48934973329191        5.21823886661635        1.33840138109126
H            9.74036469030437        4.43734407185530       -0.08265493066164
H            7.85759896491690        2.50834172105372        0.02964248359640
Ni          25.81113581199386        0.04778517601630       -0.02534085178362
C           29.20631142715558        0.05277948750710       -0.07509515324405
C           28.55273278024499        1.22079783669809       -0.40725525494786
C           29.23204880348929        2.43102459228631       -0.75671159367270
C           28.27874383834829        3.37699033760418       -0.92214500071288
C           27.01626782823265        2.74051169277274       -0.68332891550349
N           27.19410111221388        1.41358041663703       -0.38088577361547
C           25.80147932790691        3.41253347179259       -0.67927643697013
C           25.79744508453631        4.87050252547120       -0.94998658636414
C           25.43440637942263        5.78662915505107        0.03576507298126
C           25.45019531215841        7.14018574534284       -0.26248843151146
N           25.79289190092179        7.61479735852927       -1.45565577982132
C           26.13728160882805        6.74711140450336       -2.40161375851585
C           26.15763714663888        5.37615178072016       -2.19791009489398
C           24.59041353321165        2.78019177747946       -0.43504609471897
C           23.32641668920483        3.45174525844567       -0.46482305759702
C           22.37567945999758        2.50394689488139       -0.28605152017168
N           24.41441942164807        1.43033302554608       -0.22851914863805
C           23.05975676791530        1.25723251883273       -0.15171676574338
C           22.39569548261968        0.03513222127933       -0.01912846699381
C           23.07079907190139       -1.18009227565219        0.12162196164040
C           22.39884666964610       -2.43522640252009        0.23613104672541
C           23.35676163832159       -3.37251132947113        0.43181760756481
C           24.61190968042437       -2.68422004735917        0.44429041548486
N           24.42593125625756       -1.33860150410083        0.22081687811630
C           25.83012532448470       -3.30927029166754        0.67408544101764
C           25.83742203412954       -4.75960805440890        0.97574067198615
C           26.48077736714065       -5.66908324044719        0.13715650933769
C           26.45963090997661       -7.01686230768053        0.45935464038205
N           25.85392113944489       -7.49316438335784        1.54230102411136
C           25.23958213591660       -6.63268479941700        2.34767926743479
C           25.20190024734396       -5.26810188736853        2.10774851202024
C           27.04288341519720       -2.63441376183031        0.62448043433206
C           28.31081399343391       -3.24982340162379        0.88819184272817
C           29.25692646573058       -2.30773686996799        0.66728347207473
C           28.56601647545646       -1.11472312169506        0.28370433609386
N           27.20812080619061       -1.31440307178712        0.28726678970814
H           30.29000262395600        0.05544992959551       -0.08719235447463
H           30.30244678042188        2.52673144471301       -0.84589721004512
H           28.40603545751325        4.41790931002188       -1.17109489361600
H           25.15697167971776        5.44474043270664        1.02572411210394
H           25.17622031095221        7.87410273298099        0.48975535431253
H           26.40938234997160        7.16562911565551       -3.36617996100286
H           26.43625078437772        4.70492817866654       -3.00147416989379
H           23.19394457623346        4.51009215291086       -0.61890398134187
H           21.30442855519133        2.62075819049238       -0.25533920043044
H           21.33076025607421       -2.56616494386789        0.17215659326786
H           23.23514466979954       -4.43663477211516        0.55078483009440
H           26.97747783687918       -5.32704402011001       -0.76297695752455
H           26.95072503034785       -7.74461488362944       -0.17998225619656
H           24.75524417044906       -7.05214015886342        3.22461813357506
H           24.69809433354774       -4.60252958586536        2.79847785726210
H           28.44578877695019       -4.27104389441774        1.20530683636371
H           30.32847116452051       -2.39224390642024        0.75392142117734
C           18.41752206930598       -0.01076217019064       -0.02007584526434
C           17.19629641040411       -0.03049593804084       -0.01654732913971
C           19.76829148125821        0.00421067321270       -0.02500896766684
C           20.98947836512034        0.02583973283595       -0.02427203164394

 Bond Distances (Angstroems)
 ---------------------------
Ni1-N7=1.9760        Ni1-N18=1.9756       Ni1-N25=1.9752       Ni1-N37=1.9757       C2-C3=1.3790         C2-C36=1.3791        
C2-H38=1.0838        C3-C2=1.3790         C3-C4=1.4312         C3-N7=1.3725         C4-C3=1.4312         C4-C5=1.3532         
C4-H39=1.0784        C5-C4=1.3532         C5-C6=1.4339         C5-H40=1.0778        C6-C5=1.4339         C6-N7=1.3725         
C6-C8=1.3883         N7-Ni1=1.9760        N7-C3=1.3725         N7-C6=1.3725         C8-C6=1.3883         C8-C9=1.4829         
C8-C15=1.3879        C9-C8=1.4829         C9-C10=1.3938        C9-C14=1.3938        C10-C9=1.3938        C10-C11=1.3861       
C10-H41=1.0835       C11-C10=1.3861       C11-N12=1.3290       C11-H42=1.0861       N12-C11=1.3290       N12-C13=1.3290       
C13-N12=1.3290       C13-C14=1.3862       C13-H43=1.0861       C14-C9=1.3938        C14-C13=1.3862       C14-H44=1.0835       
C15-C8=1.3879        C15-C16=1.4316       C15-N18=1.3769       C16-C15=1.4316       C16-C17=1.3543       C16-H45=1.0777       
C17-C16=1.3543       C17-C19=1.4284       C17-H46=1.0780       N18-Ni1=1.9756       N18-C15=1.3769       N18-C19=1.3678       
C19-C17=1.4284       C19-N18=1.3678       C19-C20=1.3972       C20-C19=1.3972       C20-C21=1.3973       C20-C110=1.4063      
C21-C20=1.3973       C21-C22=1.4283       C21-N25=1.3680       C22-C21=1.4283       C22-C23=1.3544       C22-H47=1.0780       
C23-C22=1.3544       C23-C24=1.4315       C23-H48=1.0776       C24-C23=1.4315       C24-N25=1.3767       C24-C26=1.3884       
N25-Ni1=1.9752       N25-C21=1.3680       N25-C24=1.3767       C26-C24=1.3884       C26-C27=1.4814       C26-C33=1.3888       
C27-C26=1.4814       C27-C28=1.3944       C27-C32=1.3942       C28-C27=1.3944       C28-C29=1.3859       C28-H49=1.0835       
C29-C28=1.3859       C29-N30=1.3291       C29-H50=1.0861       N30-C29=1.3291       N30-C31=1.3291       C31-N30=1.3291       
C31-C32=1.3860       C31-H51=1.0861       C32-C27=1.3942       C32-C31=1.3860       C32-H52=1.0835       C33-C26=1.3888       
C33-C34=1.4338       C33-N37=1.3724       C34-C33=1.4338       C34-C35=1.3533       C34-H53=1.0778       C35-C34=1.3533       
C35-C36=1.4310       C35-H54=1.0784       C36-C2=1.3791        C36-C35=1.4310       C36-N37=1.3725       N37-Ni1=1.9757       
N37-C33=1.3724       N37-C36=1.3725       H38-C2=1.0838        H39-C4=1.0784        H40-C5=1.0778        H41-C10=1.0835       
H42-C11=1.0861       H43-C13=1.0861       H44-C14=1.0835       H45-C16=1.0777       H46-C17=1.0780       H47-C22=1.0780       
H48-C23=1.0776       H49-C28=1.0835       H50-C29=1.0861       H51-C31=1.0861       H52-C32=1.0835       H53-C34=1.0778       
H54-C35=1.0784       Ni55-N61=1.9760      Ni55-N72=1.9757      Ni55-N79=1.9752      Ni55-N91=1.9761      C56-C57=1.3790       
C56-C90=1.3790       C56-H92=1.0838       C57-C56=1.3790       C57-C58=1.4312       C57-N61=1.3725       C58-C57=1.4312       
C58-C59=1.3531       C58-H93=1.0784       C59-C58=1.3531       C59-C60=1.4339       C59-H94=1.0778       C60-C59=1.4339       
C60-N61=1.3725       C60-C62=1.3883       N61-Ni55=1.9760      N61-C57=1.3725       N61-C60=1.3725       C62-C60=1.3883       
C62-C63=1.4829       C62-C69=1.3879       C63-C62=1.4829       C63-C64=1.3938       C63-C68=1.3938       C64-C63=1.3938       
C64-C65=1.3861       C64-H95=1.0835       C65-C64=1.3861       C65-N66=1.3290       C65-H96=1.0861       N66-C65=1.3290       
N66-C67=1.3290       C67-N66=1.3290       C67-C68=1.3862       C67-H97=1.0861       C68-C63=1.3938       C68-C67=1.3862       
C68-H98=1.0835       C69-C62=1.3879       C69-C70=1.4316       C69-N72=1.3769       C70-C69=1.4316       C70-C71=1.3543       
C70-H99=1.0777       C71-C70=1.3543       C71-C73=1.4284       C71-H100=1.0780      N72-Ni55=1.9757      N72-C69=1.3769       
N72-C73=1.3678       C73-C71=1.4284       C73-N72=1.3678       C73-C74=1.3972       C74-C73=1.3972       C74-C75=1.3973       
C74-C112=1.4063      C75-C74=1.3973       C75-C76=1.4283       C75-N79=1.3680       C76-C75=1.4283       C76-C77=1.3544       
C76-H101=1.0780      C77-C76=1.3544       C77-C78=1.4315       C77-H102=1.0776      C78-C77=1.4315       C78-N79=1.3767       
C78-C80=1.3884       N79-Ni55=1.9752      N79-C75=1.3680       N79-C78=1.3767       C80-C78=1.3884       C80-C81=1.4814       
C80-C87=1.3888       C81-C80=1.4814       C81-C82=1.3944       C81-C86=1.3942       C82-C81=1.3944       C82-C83=1.3859       
C82-H103=1.0835      C83-C82=1.3859       C83-N84=1.3291       C83-H104=1.0861      N84-C83=1.3291       N84-C85=1.3291       
C85-N84=1.3291       C85-C86=1.3860       C85-H105=1.0861      C86-C81=1.3942       C86-C85=1.3860       C86-H106=1.0835      
C87-C80=1.3888       C87-C88=1.4338       C87-N91=1.3724       C88-C87=1.4338       C88-C89=1.3533       C88-H107=1.0778      
C89-C88=1.3533       C89-C90=1.4310       C89-H108=1.0784      C90-C56=1.3790       C90-C89=1.4310       C90-N91=1.3725       
N91-Ni55=1.9761      N91-C87=1.3724       N91-C90=1.3725       H92-C56=1.0838       H93-C58=1.0784       H94-C59=1.0778       
H95-C64=1.0835       H96-C65=1.0861       H97-C67=1.0861       H98-C68=1.0835       H99-C70=1.0777       H100-C71=1.0780      
H101-C76=1.0780      H102-C77=1.0776      H103-C82=1.0835      H104-C83=1.0861      H105-C85=1.0861      H106-C86=1.0835      
H107-C88=1.0778      H108-C89=1.0784      C109-C110=1.2214     C109-C111=1.3509     C110-C20=1.4063      C110-C109=1.2214     
C111-C109=1.3509     C111-C112=1.2214     C112-C74=1.4063      C112-C111=1.2214     
 C  H  Rav=1.0815 sigma=0.0035  Rmin=1.0776  Rmax=1.0861    34
 C  C  Rav=1.3956 sigma=0.0446  Rmin=1.2214  Rmax=1.4829    65
 N  C  Rav=1.3580 sigma=0.0206  Rmin=1.3290  Rmax=1.3769    24
 Ni N  Rav=1.9757 sigma=0.0003  Rmin=1.9752  Rmax=1.9761     8

 selected bond angles (degree)
 --------------------
N18-Ni1-N7= 89.58              N25-Ni1-N7=176.74              N25-Ni1-N18= 90.47             N37-Ni1-N7= 90.58              
N37-Ni1-N18=176.72             N37-Ni1-N25= 89.56             C36-C2-C3=124.03               H38-C2-C3=117.98               
H38-C2-C36=117.99              C4-C3-C2=123.38                N7-C3-C2=125.69                N7-C3-C4=110.84                
C5-C4-C3=106.66                H39-C4-C3=124.50               H39-C4-C5=128.84               C6-C5-C4=106.84                
H40-C5-C4=128.33               H40-C5-C6=124.83               N7-C6-C5=110.59                C8-C6-C5=123.79                
C8-C6-N7=125.50                C3-N7-Ni1=126.81               C6-N7-Ni1=128.11               C6-N7-C3=105.06                
C9-C8-C6=118.54                C15-C8-C6=122.92               C15-C8-C9=118.54               C10-C9-C8=121.20               
C14-C9-C8=121.28               C14-C9-C10=117.52              C11-C10-C9=119.12              H41-C10-C9=120.36              
H41-C10-C11=120.51             

 selected dihedral angles (degree)
 ---------------------------------
C4-C3-C2-C36=178.88           C4-C3-C2-H38=359.55           N7-C3-C2-C36=  2.72           N7-C3-C2-H38=183.38           
C5-C4-C3-C2=184.40            C5-C4-C3-N7=  1.07            H39-C4-C3-C2=  3.62           H39-C4-C3-N7=180.29           
C6-C5-C4-C3=359.56            C6-C5-C4-H39=180.38           H40-C5-C4-C3=178.77           H40-C5-C4-H39=359.60          
N7-C6-C5-C4=359.69            N7-C6-C5-H40=180.44           C8-C6-C5-C4=175.88            C8-C6-C5-H40=356.63           
C3-N7-Ni1-N18=179.49          C3-N7-Ni1-N25=270.34          C3-N7-Ni1-N37=  2.77          C6-N7-Ni1-N18=357.81          
C6-N7-Ni1-N25= 88.66          C6-N7-Ni1-N37=181.09          Ni1-N7-C3-C2=353.98           Ni1-N7-C3-C4=177.40           
C6-N7-C3-C2=175.35            C6-N7-C3-C4=358.77            Ni1-N7-C6-C5=182.34           Ni1-N7-C6-C8=  6.23           
C3-N7-C6-C5=  0.95            C3-N7-C6-C8=184.84            C9-C8-C6-C5=  0.66            C9-C8-C6-N7=176.27            
C15-C8-C6-C5=180.53           C15-C8-C6-N7=356.15           C10-C9-C8-C6=246.42           C10-C9-C8-C15= 66.54          
C14-C9-C8-C6= 66.36           C14-C9-C8-C15=246.47          C11-C10-C9-C8=179.79          C11-C10-C9-C14=359.86         
H41-C10-C9-C8=  0.63          H41-C10-C9-C14=180.69         
           -------------------------------------------------
          |                Final Singlepoint                |
           -------------------------------------------------

          ...................................................
          :                      SETUP                      :
          :.................................................:
          :  # basis functions                 392          :
          :  # atomic orbitals                 390          :
          :  # shells                          226          :
          :  # electrons                       370          :
          :  # halogen bonds                     0          :
          :  max. iterations                   250          :
          :  Hamiltonian                  GFN1-xTB          :
          :  restarted?                      false          :
          :  GBSA solvation                  false          :
          :  PC potential                    false          :
          :  electronic temp.          300.0000000     K    :
          :  accuracy                    1.0000000          :
          :  -> integral cutoff          0.2500000E+02      :
          :  -> integral neglect         0.1000000E-07      :
          :  -> SCF convergence          0.1000000E-05 Eh   :
          :  -> wf. convergence          0.2000000E-04 e    :
[...]
   104H     0.02788  0.09381   0.972  0.000  0.000
   105H     0.02796  0.09388   0.972  0.000  0.000
   106H     0.03778  0.09587   0.962  0.000  0.000
   107H     0.03712  0.09615   0.963  0.000  0.000
   108H     0.03808  0.09472   0.962  0.000  0.000
   109C    -0.01545 -0.01631   1.075  2.941  0.000
   110C    -0.03139 -0.03316   1.101  2.930  0.000
   111C    -0.01545 -0.01631   1.075  2.941  0.000
   112C    -0.03139 -0.03316   1.101  2.930  0.000

Wiberg/Mayer (AO) data.
largest (>0.10) Wiberg bond orders for each atom

 ---------------------------------------------------------------------------
     #   Z sym  total        # sym  WBO       # sym  WBO       # sym  WBO
 ---------------------------------------------------------------------------
     1  28 Ni   3.010 --     7 N    0.664    37 N    0.664    18 N    0.661
                            25 N    0.661
     2   6 C    3.935 --     3 C    1.364    36 C    1.364    38 H    0.970
     3   6 C    3.923 --     2 C    1.364     7 N    1.214     4 C    1.174
     4   6 C    3.960 --     5 C    1.651     3 C    1.174    39 H    0.975
     5   6 C    3.963 --     4 C    1.651     6 C    1.176    40 H    0.972
     6   6 C    3.920 --     8 C    1.324     7 N    1.221     5 C    1.176
     7   7 N    3.402 --     6 C    1.221     3 C    1.214     1 Ni   0.664
     8   6 C    3.939 --    15 C    1.330     6 C    1.324     9 C    1.022
     9   6 C    3.986 --    14 C    1.395    10 C    1.395     8 C    1.022
                            12 N    0.107
    10   6 C    3.988 --    11 C    1.441     9 C    1.395    41 H    0.973
                            13 C    0.109
    11   6 C    3.972 --    10 C    1.441    12 N    1.416    42 H    0.972
                            14 C    0.109
    12   7 N    3.031 --    13 C    1.416    11 C    1.416     9 C    0.107
    13   6 C    3.972 --    14 C    1.441    12 N    1.416    43 H    0.972
                            10 C    0.109
    14   6 C    3.988 --    13 C    1.441     9 C    1.395    44 H    0.973
                            11 C    0.109
    15   6 C    3.915 --     8 C    1.330    18 N    1.206    16 C    1.183
    16   6 C    3.959 --    17 C    1.637    15 C    1.183    45 H    0.973
    17   6 C    3.961 --    16 C    1.637    19 C    1.190    46 H    0.973
    18   7 N    3.407 --    19 C    1.239    15 C    1.206     1 Ni   0.661
    19   6 C    3.904 --    20 C    1.265    18 N    1.239    17 C    1.190
    20   6 C    3.944 --    19 C    1.265    21 C    1.265   110 C    1.180
    21   6 C    3.904 --    20 C    1.265    25 N    1.238    22 C    1.191
    22   6 C    3.961 --    23 C    1.636    21 C    1.191    47 H    0.973
    23   6 C    3.959 --    22 C    1.636    24 C    1.183    48 H    0.973
    24   6 C    3.915 --    26 C    1.327    25 N    1.207    23 C    1.183
    25   7 N    3.406 --    21 C    1.238    24 C    1.207     1 Ni   0.661
    26   6 C    3.939 --    24 C    1.327    33 C    1.322    27 C    1.027
    27   6 C    3.986 --    32 C    1.393    28 C    1.393    26 C    1.027
                            30 N    0.107
    28   6 C    3.987 --    29 C    1.442    27 C    1.393    49 H    0.973
                            31 C    0.109
    29   6 C    3.972 --    28 C    1.442    30 N    1.416    50 H    0.972
                            32 C    0.109
    30   7 N    3.030 --    31 C    1.416    29 C    1.416    27 C    0.107
    31   6 C    3.972 --    32 C    1.442    30 N    1.416    51 H    0.972
                            28 C    0.109
    32   6 C    3.987 --    31 C    1.442    27 C    1.393    52 H    0.973
                            29 C    0.109
    33   6 C    3.920 --    26 C    1.322    37 N    1.222    34 C    1.176
    34   6 C    3.963 --    35 C    1.649    33 C    1.176    53 H    0.972
    35   6 C    3.960 --    34 C    1.649    36 C    1.175    54 H    0.975
    36   6 C    3.923 --     2 C    1.364    37 N    1.213    35 C    1.175
    37   7 N    3.402 --    33 C    1.222    36 C    1.213     1 Ni   0.664
    38   1 H    1.000 --     2 C    0.970
    39   1 H    0.997 --     4 C    0.975
    40   1 H    1.004 --     5 C    0.972
    41   1 H    1.003 --    10 C    0.973
    42   1 H    1.013 --    11 C    0.972
    43   1 H    1.013 --    13 C    0.972
    44   1 H    1.003 --    14 C    0.973
    45   1 H    1.004 --    16 C    0.973
    46   1 H    1.002 --    17 C    0.973
    47   1 H    1.002 --    22 C    0.973
    48   1 H    1.004 --    23 C    0.973
    49   1 H    1.004 --    28 C    0.973
    50   1 H    1.013 --    29 C    0.972
    51   1 H    1.013 --    31 C    0.972
    52   1 H    1.004 --    32 C    0.973
    53   1 H    1.004 --    34 C    0.972
    54   1 H    0.997 --    35 C    0.975
    55  28 Ni   3.010 --    61 N    0.664    91 N    0.664    79 N    0.661
                            72 N    0.661
    56   6 C    3.935 --    57 C    1.364    90 C    1.364    92 H    0.970
    57   6 C    3.923 --    56 C    1.364    61 N    1.214    58 C    1.174
    58   6 C    3.960 --    59 C    1.651    57 C    1.174    93 H    0.975
    59   6 C    3.963 --    58 C    1.651    60 C    1.176    94 H    0.972
    60   6 C    3.920 --    62 C    1.324    61 N    1.221    59 C    1.176
    61   7 N    3.402 --    60 C    1.221    57 C    1.214    55 Ni   0.664
    62   6 C    3.939 --    69 C    1.330    60 C    1.324    63 C    1.022
    63   6 C    3.986 --    68 C    1.395    64 C    1.395    62 C    1.022
                            66 N    0.107
    64   6 C    3.988 --    65 C    1.441    63 C    1.395    95 H    0.973
                            67 C    0.109
    65   6 C    3.972 --    64 C    1.441    66 N    1.416    96 H    0.972
                            68 C    0.109
    66   7 N    3.031 --    67 C    1.416    65 C    1.416    63 C    0.107
    67   6 C    3.972 --    68 C    1.441    66 N    1.416    97 H    0.972
                            64 C    0.109
    68   6 C    3.988 --    67 C    1.441    63 C    1.395    98 H    0.973
                            65 C    0.109
    69   6 C    3.915 --    62 C    1.330    72 N    1.206    70 C    1.183
    70   6 C    3.959 --    71 C    1.637    69 C    1.183    99 H    0.973
    71   6 C    3.961 --    70 C    1.637    73 C    1.190   100 H    0.973
    72   7 N    3.407 --    73 C    1.239    69 C    1.206    55 Ni   0.661
    73   6 C    3.904 --    74 C    1.265    72 N    1.239    71 C    1.190
    74   6 C    3.944 --    73 C    1.265    75 C    1.265   112 C    1.180
    75   6 C    3.904 --    74 C    1.265    79 N    1.238    76 C    1.191
    76   6 C    3.961 --    77 C    1.636    75 C    1.191   101 H    0.973
    77   6 C    3.959 --    76 C    1.636    78 C    1.183   102 H    0.972
    78   6 C    3.915 --    80 C    1.327    79 N    1.207    77 C    1.183
    79   7 N    3.406 --    75 C    1.238    78 C    1.207    55 Ni   0.661
    80   6 C    3.939 --    78 C    1.327    87 C    1.322    81 C    1.027
    81   6 C    3.986 --    86 C    1.393    82 C    1.393    80 C    1.027
                            84 N    0.107
    82   6 C    3.987 --    83 C    1.442    81 C    1.393   103 H    0.973
                            85 C    0.109
    83   6 C    3.972 --    82 C    1.442    84 N    1.416   104 H    0.972
                            86 C    0.109
    84   7 N    3.030 --    85 C    1.416    83 C    1.416    81 C    0.107
    85   6 C    3.972 --    86 C    1.442    84 N    1.416   105 H    0.972
                            82 C    0.109
    86   6 C    3.987 --    85 C    1.442    81 C    1.393   106 H    0.973
                            83 C    0.109
    87   6 C    3.920 --    80 C    1.322    91 N    1.222    88 C    1.176
    88   6 C    3.963 --    89 C    1.649    87 C    1.176   107 H    0.972
    89   6 C    3.960 --    88 C    1.649    90 C    1.175   108 H    0.975
    90   6 C    3.923 --    56 C    1.364    91 N    1.213    89 C    1.175
    91   7 N    3.402 --    87 C    1.222    90 C    1.213    55 Ni   0.664
    92   1 H    1.000 --    56 C    0.970
    93   1 H    0.997 --    58 C    0.975
    94   1 H    1.004 --    59 C    0.972
    95   1 H    1.003 --    64 C    0.973
    96   1 H    1.013 --    65 C    0.972
    97   1 H    1.013 --    67 C    0.972
    98   1 H    1.003 --    68 C    0.973
    99   1 H    1.004 --    70 C    0.973
   100   1 H    1.002 --    71 C    0.973
   101   1 H    1.002 --    76 C    0.973
   102   1 H    1.004 --    77 C    0.972
   103   1 H    1.004 --    82 C    0.973
   104   1 H    1.013 --    83 C    0.972
   105   1 H    1.013 --    85 C    0.972
   106   1 H    1.004 --    86 C    0.973
   107   1 H    1.004 --    88 C    0.972
   108   1 H    0.997 --    89 C    0.975
   109   6 C    3.938 --   110 C    2.486   111 C    1.302
   110   6 C    3.928 --   109 C    2.486    20 C    1.180   112 C    0.200
   111   6 C    3.938 --   112 C    2.486   109 C    1.302
   112   6 C    3.928 --   111 C    2.486    74 C    1.180   110 C    0.200
 ---------------------------------------------------------------------------

Topologies differ in total number of bonds
Writing topology from bond orders to xtbtopo.mol

 dipole moment from electron density (au)
     X       Y       Z   
  -0.0002  -0.0044  -0.0309  total (Debye):    0.079

           -------------------------------------------------
          |                Geometry Summary                 |
           -------------------------------------------------

      molecular mass/u    :     1088.4242158
   center of mass at/Å    :       19.0929117      -0.0000697      -0.0027100
  moments of inertia/u·Å² :        0.1682128E+05   0.5124251E+05   0.6741341E+05
rotational constants/cm⁻¹ :        0.1002161E-02   0.3289775E-03   0.2500635E-03

 * 116 selected distances

     #   Z          #   Z                                           value/Å
     2   6 C        3   6 C                                       1.3790490
     3   6 C        4   6 C                                       1.4311673
     4   6 C        5   6 C                                       1.3531595
     5   6 C        6   6 C                                       1.4338733 (max)
     3   6 C        7   7 N                                       1.3724964
     6   6 C        7   7 N                                       1.3724977
     6   6 C        8   6 C                                       1.3882934
     9   6 C       10   6 C                                       1.3938330
    10   6 C       11   6 C                                       1.3861183
    11   6 C       12   7 N                                       1.3290421
    12   7 N       13   6 C                                       1.3290259
     9   6 C       14   6 C                                       1.3938170
    13   6 C       14   6 C                                       1.3861595
     8   6 C       15   6 C                                       1.3878702
    15   6 C       16   6 C                                       1.4316328
    16   6 C       17   6 C                                       1.3543190
    15   6 C       18   7 N                                       1.3768691
    17   6 C       19   6 C                                       1.4283949
    18   7 N       19   6 C                                       1.3678470
    19   6 C       20   6 C                                       1.3971782
    20   6 C       21   6 C                                       1.3972715
    21   6 C       22   6 C                                       1.4282904
    22   6 C       23   6 C                                       1.3544159
    23   6 C       24   6 C                                       1.4315248
    21   6 C       25   7 N                                       1.3679583
    24   6 C       25   7 N                                       1.3766567
    24   6 C       26   6 C                                       1.3883513
    27   6 C       28   6 C                                       1.3943746
    28   6 C       29   6 C                                       1.3859121
    29   6 C       30   7 N                                       1.3291081
    30   7 N       31   6 C                                       1.3290858
    27   6 C       32   6 C                                       1.3942230
    31   6 C       32   6 C                                       1.3860368
    26   6 C       33   6 C                                       1.3887547
    33   6 C       34   6 C                                       1.4338447
    34   6 C       35   6 C                                       1.3533151
     2   6 C       36   6 C                                       1.3790615
    35   6 C       36   6 C                                       1.4310085
    33   6 C       37   7 N                                       1.3724027
    36   6 C       37   7 N                                       1.3725102
     2   6 C       38   1 H                                       1.0837623
     4   6 C       39   1 H                                       1.0783637
     5   6 C       40   1 H                                       1.0778220
    10   6 C       41   1 H                                       1.0834553
    11   6 C       42   1 H                                       1.0860784
    13   6 C       43   1 H                                       1.0860869
    14   6 C       44   1 H                                       1.0834592
    16   6 C       45   1 H                                       1.0776752
    17   6 C       46   1 H                                       1.0780358
    22   6 C       47   1 H                                       1.0779919
    23   6 C       48   1 H                                       1.0776448
    28   6 C       49   1 H                                       1.0834873
    29   6 C       50   1 H                                       1.0860721
    31   6 C       51   1 H                                       1.0860714
    32   6 C       52   1 H                                       1.0834739
    34   6 C       53   1 H                                       1.0778090
    35   6 C       54   1 H                                       1.0783548
    56   6 C       57   6 C                                       1.3790441
    57   6 C       58   6 C                                       1.4311671
    58   6 C       59   6 C                                       1.3531482
    59   6 C       60   6 C                                       1.4338704
    57   6 C       61   7 N                                       1.3724944
    60   6 C       61   7 N                                       1.3725318
    60   6 C       62   6 C                                       1.3882871
    63   6 C       64   6 C                                       1.3938407
    64   6 C       65   6 C                                       1.3861170
    65   6 C       66   7 N                                       1.3290394
    66   7 N       67   6 C                                       1.3290297
    63   6 C       68   6 C                                       1.3938195
    67   6 C       68   6 C                                       1.3861602
    62   6 C       69   6 C                                       1.3878707
    69   6 C       70   6 C                                       1.4316281
    70   6 C       71   6 C                                       1.3543200
    69   6 C       72   7 N                                       1.3768610
    71   6 C       73   6 C                                       1.4283923
    72   7 N       73   6 C                                       1.3678354
    73   6 C       74   6 C                                       1.3971709
    74   6 C       75   6 C                                       1.3972639
    75   6 C       76   6 C                                       1.4282837
    76   6 C       77   6 C                                       1.3543994
    77   6 C       78   6 C                                       1.4315367
    75   6 C       79   7 N                                       1.3679724
    78   6 C       79   7 N                                       1.3766692
    78   6 C       80   6 C                                       1.3883599
    81   6 C       82   6 C                                       1.3943726
    82   6 C       83   6 C                                       1.3859176
    83   6 C       84   7 N                                       1.3291054
    84   7 N       85   6 C                                       1.3290869
    81   6 C       86   6 C                                       1.3942367
    85   6 C       86   6 C                                       1.3860280
    80   6 C       87   6 C                                       1.3887673
    87   6 C       88   6 C                                       1.4338483
    88   6 C       89   6 C                                       1.3533132
    56   6 C       90   6 C                                       1.3790495
    89   6 C       90   6 C                                       1.4310038
    87   6 C       91   7 N                                       1.3723866
    90   6 C       91   7 N                                       1.3725035
    56   6 C       92   1 H                                       1.0837621
    58   6 C       93   1 H                                       1.0783626
    59   6 C       94   1 H                                       1.0778180
    64   6 C       95   1 H                                       1.0834561
    65   6 C       96   1 H                                       1.0860789
    67   6 C       97   1 H                                       1.0860866
    68   6 C       98   1 H                                       1.0834584
    70   6 C       99   1 H                                       1.0776772
    71   6 C      100   1 H                                       1.0780384
    76   6 C      101   1 H                                       1.0779826
    77   6 C      102   1 H                                       1.0776376 (min)
    82   6 C      103   1 H                                       1.0834863
    83   6 C      104   1 H                                       1.0860705
    85   6 C      105   1 H                                       1.0860700
    86   6 C      106   1 H                                       1.0834732
    88   6 C      107   1 H                                       1.0778087
    89   6 C      108   1 H                                       1.0783579
   109   6 C      110   6 C                                       1.2213903
   111   6 C      112   6 C                                       1.2213787

 * 3 distinct bonds (by element types)

   Z      Z             #   av. dist./Å        max./Å        min./Å
   1 H    6 C          34     1.0815079     1.0860869     1.0776376
   6 C    6 C          58     1.3900903     1.4338733     1.2213787
   6 C    7 N          24     1.3579590     1.3768691     1.3290259


optimized geometry written to: xtbopt.xyz


           -------------------------------------------------
          | TOTAL ENERGY             -200.054536507519 Eh   |
          | GRADIENT NORM               0.000460448884 Eh/α |
          | HOMO-LUMO GAP               1.220800222368 eV   |
           -------------------------------------------------

------------------------------------------------------------------------
 * finished run on 2022/07/30 at 02:25:20.344     
------------------------------------------------------------------------
 total:
 * wall-time:     0 d,  0 h,  0 min, 43.781 sec
 *  cpu-time:     0 d,  0 h,  0 min, 43.409 sec
 * ratio c/w:     0.991 speedup
 SCF:
 * wall-time:     0 d,  0 h,  0 min,  3.131 sec
 *  cpu-time:     0 d,  0 h,  0 min,  3.106 sec
 * ratio c/w:     0.992 speedup
 ANC optimizer:
 * wall-time:     0 d,  0 h,  0 min, 40.465 sec
 *  cpu-time:     0 d,  0 h,  0 min, 40.124 sec
 * ratio c/w:     0.992 speedup

