      -----------------------------------------------------------      
     |                   =====================                   |     
     |                           x T B                           |     
     |                   =====================                   |     
     |                         S. Grimme                         |     
     |          Mulliken Center for Theoretical Chemistry        |     
     |                    University of Bonn                     |     
      -----------------------------------------------------------      

   * xtb version 6.5.1 (b24c23e) compiled by 'conda@728c89f4b128' on 2022-07-12

   xtb is free software: you can redistribute it and/or modify it under
   the terms of the GNU Lesser General Public License as published by
   the Free Software Foundation, either version 3 of the License, or
   (at your option) any later version.
   
   xtb is distributed in the hope that it will be useful,
   but WITHOUT ANY WARRANTY; without even the implied warranty of
   MERCHANTABILITY or FITNESS FOR A PARTICULAR PURPOSE.  See the
   GNU Lesser General Public License for more details.
   
   Cite this work as:
   * C. Bannwarth, E. Caldeweyher, S. Ehlert, A. Hansen, P. Pracht,
     J. Seibert, S. Spicher, S. Grimme, WIREs Comput. Mol. Sci., 2020, 11,
     e01493. DOI: 10.1002/wcms.1493
   
   for GFN2-xTB:
   * C. Bannwarth, S. Ehlert and S. Grimme., J. Chem. Theory Comput., 2019,
     15, 1652-1671. DOI: 10.1021/acs.jctc.8b01176
   for GFN1-xTB:
   * S. Grimme, C. Bannwarth, P. Shushkov, J. Chem. Theory Comput., 2017,
     13, 1989-2009. DOI: 10.1021/acs.jctc.7b00118
   for GFN0-xTB:
   * P. Pracht, E. Caldeweyher, S. Ehlert, S. Grimme, ChemRxiv, 2019, preprint.
     DOI: 10.26434/chemrxiv.8326202.v1
   for GFN-FF:
   * S. Spicher and S. Grimme, Angew. Chem. Int. Ed., 2020, 59, 15665-15673.
     DOI: 10.1002/anie.202004239
   
   for ALPB and GBSA implicit solvation:
   * S. Ehlert, M. Stahn, S. Spicher, S. Grimme, J. Chem. Theory Comput.,
     2021, 17, 4250-4261. DOI: 10.1021/acs.jctc.1c00471
   
   for DFT-D4:
   * E. Caldeweyher, C. Bannwarth and S. Grimme, J. Chem. Phys., 2017,
     147, 034112. DOI: 10.1063/1.4993215
   * E. Caldeweyher, S. Ehlert, A. Hansen, H. Neugebauer, S. Spicher,
     C. Bannwarth and S. Grimme, J. Chem. Phys., 2019, 150, 154122.
     DOI: 10.1063/1.5090222
   * E. Caldeweyher, J.-M. Mewes, S. Ehlert and S. Grimme, Phys. Chem. Chem. Phys.
     2020, 22, 8499-8512. DOI: 10.1039/D0CP00502A
   
   for sTDA-xTB:
   * S. Grimme and C. Bannwarth, J. Chem. Phys., 2016, 145, 054103.
     DOI: 10.1063/1.4959605
   
   in the mass-spec context:
   * V. Asgeirsson, C. Bauer and S. Grimme, Chem. Sci., 2017, 8, 4879.
     DOI: 10.1039/c7sc00601b
   * J. Koopman and S. Grimme, ACS Omega 2019, 4, 12, 15120-15133.
     DOI: 10.1021/acsomega.9b02011
   
   for metadynamics refer to:
   * S. Grimme, J. Chem. Theory Comput., 2019, 155, 2847-2862
     DOI: 10.1021/acs.jctc.9b00143
   
   for SPH calculations refer to:
   * S. Spicher and S. Grimme, J. Chem. Theory Comput., 2021, 17, 1701-1714
     DOI: 10.1021/acs.jctc.0c01306
   
   with help from (in alphabetical order)
   P. Atkinson, C. Bannwarth, F. Bohle, G. Brandenburg, E. Caldeweyher
   M. Checinski, S. Dohm, S. Ehlert, S. Ehrlich, I. Gerasimov, C. Hölzer
   A. Katbashev, J. Koopman, C. Lavigne, S. Lehtola, F. März, M. Müller,
   F. Musil, H. Neugebauer, J. Pisarek, C. Plett, P. Pracht, F. Pultar,
   J. Seibert, P. Shushkov, S. Spicher, M. Stahn, M. Steiner, T. Strunk,
   J. Stückrath, T. Rose, and J. Unsleber
   
 * started run on 2022/07/27 at 21:42:13.219     

           -------------------------------------------------
          |                Calculation Setup                |
           -------------------------------------------------

          program call               : xtb Ph2Me_C6_2.xyz --gfn 1 --opt -T 48
          hostname                   : cx3-2-25.cx3.hpc.ic.ac.uk
          coordinate file            : Ph2Me_C6_2.xyz
          omp threads                :                     1

   ID    Z sym.   atoms
    1    6 C      1-5, 7-10, 12-30, 33-40, 70-74, 76-79, 81-99, 102-109,
                  139-144
    2    7 N      6, 11, 31, 32, 75, 80, 100, 101
    3    1 H      41-69, 110-138
########################################################################
[WARNING] Please study the warnings concerning your input carefully
-1- prog_main_parseArguments: Unknown option '-T' provided
########################################################################

           -------------------------------------------------
          |                 G F N 1 - x T B                 |
           -------------------------------------------------

        Reference                      10.1021/acs.jctc.7b00118
      * Hamiltonian:
        H0-scaling (s, p, d)           1.850000    2.250000    2.000000
        zeta-weighting                 0.000000
      * Dispersion:
        s8                             2.400000
        a1                             0.630000
        a2                             5.000000
        s9                             0.000000
      * Repulsion:
        kExp                           1.500000
        rExp                           1.000000
      * Coulomb:
        alpha                          2.000000
        third order                    atomic
        anisotropic                    false
      * Halogen bond correction:
        rad-scale                      1.300000
        damping                        0.440000


          ...................................................
          :                      SETUP                      :
          :.................................................:
          :  # basis functions                 460          :
          :  # atomic orbitals                 460          :
          :  # shells                          288          :
          :  # electrons                       410          :
          :  # halogen bonds                     0          :
          :  max. iterations                   250          :
          :  Hamiltonian                  GFN1-xTB          :
          :  restarted?                      false          :
          :  GBSA solvation                  false          :
          :  PC potential                    false          :
          :  electronic temp.          300.0000000     K    :
          :  accuracy                    1.0000000          :
          :  -> integral cutoff          0.2500000E+02      :
          :  -> integral neglect         0.1000000E-07      :
          :  -> SCF convergence          0.1000000E-05 Eh   :
          :  -> wf. convergence          0.2000000E-04 e    :
          :  Broyden damping             0.4000000          :
          ...................................................

 iter      E             dE          RMSdq      gap      omega  full diag
   1   -224.8051680 -0.224805E+03  0.101E+01    0.27       0.0  T
   2   -224.9661213 -0.160953E+00  0.605E+00    0.37       1.0  T
   3   -220.9820456  0.398408E+01  0.256E+00    0.02       1.0  T
   4   -224.3915580 -0.340951E+01  0.111E+00    0.74       1.0  T
   5   -225.0454646 -0.653907E+00  0.424E-01    0.34       1.0  T
   6   -225.0749725 -0.295079E-01  0.179E-01    0.29       1.0  T
   7   -225.0314233  0.435492E-01  0.311E-01    0.32       1.0  T
   8   -225.0571420 -0.257186E-01  0.213E-01    0.30       1.0  T
   9   -225.0811160 -0.239740E-01  0.516E-02    0.28       1.0  T
  10   -225.0822066 -0.109066E-02  0.179E-02    0.27       1.0  T
  11   -225.0823268 -0.120165E-03  0.732E-03    0.28       1.1  T
  12   -225.0823439 -0.170701E-04  0.468E-03    0.28       1.8  T
  13   -225.0823475 -0.366064E-05  0.256E-03    0.28       3.2  T
  14   -225.0823481 -0.586994E-06  0.141E-03    0.28       5.9  T
  15   -225.0823491 -0.991526E-06  0.470E-04    0.28      17.7  T
  16   -225.0823492 -0.683248E-07  0.170E-04    0.28      49.1  T
  17   -225.0823492 -0.116547E-07  0.643E-05    0.28     129.6  T

   *** convergence criteria satisfied after 17 iterations ***

         #    Occupation            Energy/Eh            Energy/eV
      -------------------------------------------------------------
         1        2.0000           -0.7949780             -21.6325
       ...           ...                  ...                  ...
       199        2.0000           -0.4076467             -11.0926
       200        2.0000           -0.4071547             -11.0792
       201        2.0000           -0.4047795             -11.0146
       202        2.0000           -0.4024106             -10.9502
       203        2.0000           -0.4021851             -10.9440
       204        2.0000           -0.3804663             -10.3530
       205        1.9903           -0.3656733              -9.9505 (HOMO)
       206        0.0097           -0.3555555              -9.6752 (LUMO)
       207                         -0.3425201              -9.3204
       208                         -0.3214400              -8.7468
       209                         -0.3107704              -8.4565
       210                         -0.2981687              -8.1136
       ...                                ...                  ...
       460                          2.5573782              69.5898
      -------------------------------------------------------------
                  HL-Gap            0.0101178 Eh            0.2753 eV
             Fermi-level           -0.3606144 Eh           -9.8128 eV

 SCC (total)                   0 d,  0 h,  0 min,  1.504 sec
 SCC setup                      ...        0 min,  0.007 sec (  0.456%)
 Dispersion                     ...        0 min,  0.005 sec (  0.347%)
 classical contributions        ...        0 min,  0.002 sec (  0.132%)
 integral evaluation            ...        0 min,  0.159 sec ( 10.595%)
 iterations                     ...        0 min,  0.977 sec ( 64.947%)
 molecular gradient             ...        0 min,  0.340 sec ( 22.606%)
 printout                       ...        0 min,  0.014 sec (  0.914%)

         :::::::::::::::::::::::::::::::::::::::::::::::::::::
         ::                     SUMMARY                     ::
         :::::::::::::::::::::::::::::::::::::::::::::::::::::
         :: total energy            -221.047201126816 Eh    ::
         :: gradient norm              1.388589387352 Eh/a0 ::
         :: HOMO-LUMO gap              0.275318508949 eV    ::
         ::.................................................::
         :: SCC energy              -225.082349182685 Eh    ::
         :: -> electrostatic           0.120349036812 Eh    ::
         :: repulsion energy           4.147466921793 Eh    ::
         :: dispersion energy         -0.112318865925 Eh    ::
         :: halogen bond corr.         0.000000000000 Eh    ::
         :: add. restraining           0.000000000000 Eh    ::
         :: total charge              -0.000000000000 e     ::
         :::::::::::::::::::::::::::::::::::::::::::::::::::::

      ----------------------------------------------------------- 
     |                   =====================                   |
     |                        A N C O P T                        |
     |                   =====================                   |
     |               Approximate Normal Coordinate               |
     |                Rational Function Optimizer                |
      ----------------------------------------------------------- 

          ...................................................
          :                      SETUP                      :
          :.................................................:
          :   optimization level            normal          :
          :   max. optcycles                   432          :
          :   ANC micro-cycles                  20          :
          :   degrees of freedom               426          :
          :.................................................:
          :   RF solver                   davidson          :
          :   write xtbopt.log                true          :
          :   linear?                        false          :
          :   energy convergence         0.5000000E-05 Eh   :
          :   grad. convergence          0.1000000E-02 Eh/α :
          :   maximium RF displ.         1.0000000          :
          :   Hlow (freq-cutoff)         0.1000000E-01      :
          :   Hmax (freq-cutoff)         5.0000000          :
          :   S6 in model hess.         20.0000000          :
          ...................................................

generating ANC from model Hessian ...
Using Lindh-Hessian (1995)
 Shifting diagonal of input Hessian by    1.0000645696657698E-002
 Lowest  eigenvalues of input Hessian
    0.010000    0.000000    0.000000    0.000000    0.000000    0.000000
    0.000000    0.010001    0.010011    0.010019    0.010063    0.010089
    0.010119    0.010201    0.010274    0.010275    0.010317    0.010350
 Highest eigenvalues
    2.139147    2.250926    2.421010    2.606124    3.579865    3.599177


........................................................................
.............................. CYCLE    1 ..............................
........................................................................
   1   -225.0823492 -0.225082E+03  0.307E-05    0.28       0.0  T
   2   -225.0823492  0.287514E-08  0.802E-05    0.28     103.9  T
   3   -225.0823492 -0.176948E-08  0.513E-05    0.28     162.3  T
     SCC iter.                  ...        0 min,  0.195 sec
     gradient                   ...        0 min,  0.400 sec
 * total energy  :  -221.0472011 Eh     change       -0.4149570E-11 Eh
   gradient norm :     1.3885896 Eh/α   predicted     0.0000000E+00 (-100.00%)
   displ. norm   :     0.4925847 α      lambda       -0.6194831E+00
   maximum displ.:     0.2463681 α      in ANC's #426, #356, #424, ...

........................................................................
.............................. CYCLE    2 ..............................
........................................................................
   1   -225.1231961 -0.225123E+03  0.164E-01    0.49       0.0  T
   2   -225.1239642 -0.768051E-03  0.135E-01    0.47       1.0  T
   3   -225.1268469 -0.288269E-02  0.736E-02    0.47       1.0  T
   4   -225.1285691 -0.172218E-02  0.424E-02    0.47       1.0  T
   5   -225.1289433 -0.374188E-03  0.215E-02    0.47       1.0  T
   6   -225.1289851 -0.418145E-04  0.924E-03    0.47       1.0  T
   7   -225.1290031 -0.180559E-04  0.583E-03    0.47       1.4  T
   8   -225.1290161 -0.129306E-04  0.865E-04    0.47       9.6  T
   9   -225.1290163 -0.254736E-06  0.284E-04    0.47      29.4  T
  10   -225.1290163 -0.244282E-07  0.107E-04    0.47      77.6  T
  11   -225.1290163 -0.288594E-08  0.262E-05    0.47     318.7  T
     SCC iter.                  ...        0 min,  0.695 sec
     gradient                   ...        0 min,  0.387 sec
 * total energy  :  -221.3938986 Eh     change       -0.3466975E+00 Eh
   gradient norm :     0.3531604 Eh/α   predicted    -0.3849100E+00 (  11.02%)
   displ. norm   :     0.4690600 α      lambda       -0.1141857E+00
   maximum displ.:     0.1369423 α      in ANC's #94, #78, #356, ...

........................................................................
.............................. CYCLE    3 ..............................
........................................................................
   1   -225.1504918 -0.225150E+03  0.728E-02    0.65       0.0  T
   2   -225.1512360 -0.744225E-03  0.589E-02    0.63       1.0  T
   3   -225.1518086 -0.572555E-03  0.253E-02    0.63       1.0  T
   4   -225.1516257  0.182902E-03  0.304E-02    0.64       1.0  T
   5   -225.1519408 -0.315071E-03  0.795E-03    0.63       1.0  T
   6   -225.1519513 -0.105722E-04  0.159E-03    0.63       5.3  T
   7   -225.1519519 -0.581790E-06  0.754E-04    0.63      11.1  T
   8   -225.1519521 -0.221748E-06  0.286E-04    0.63      29.2  T
   9   -225.1519522 -0.231127E-07  0.100E-04    0.63      83.2  T
  10   -225.1519522 -0.224767E-08  0.322E-05    0.63     259.2  T
     SCC iter.                  ...        0 min,  0.639 sec
     gradient                   ...        0 min,  0.393 sec
 * total energy  :  -221.4786675 Eh     change       -0.8476891E-01 Eh
   gradient norm :     0.1724346 Eh/α   predicted    -0.6965496E-01 ( -17.83%)
   displ. norm   :     0.5397091 α      lambda       -0.5411665E-01
   maximum displ.:     0.2018759 α      in ANC's #78, #94, #93, ...

........................................................................
.............................. CYCLE    4 ..............................
........................................................................
   1   -225.1984942 -0.225198E+03  0.632E-02    0.87       0.0  T
   2   -225.1991755 -0.681294E-03  0.486E-02    0.85       1.0  T
   3   -225.1996372 -0.461728E-03  0.179E-02    0.85       1.0  T
   4   -225.1995423  0.948831E-04  0.201E-02    0.86       1.0  T
   5   -225.1996858 -0.143468E-03  0.459E-03    0.85       1.8  T
   6   -225.1996883 -0.254754E-05  0.121E-03    0.85       6.9  T
   7   -225.1996886 -0.302731E-06  0.451E-04    0.85      18.5  T
   8   -225.1996887 -0.326105E-07  0.191E-04    0.85      43.6  T
   9   -225.1996887 -0.135848E-07  0.889E-05    0.85      93.7  T
     SCC iter.                  ...        0 min,  0.601 sec
     gradient                   ...        0 min,  0.399 sec
 * total energy  :  -221.5120112 Eh     change       -0.3334368E-01 Eh
   gradient norm :     0.0649854 Eh/α   predicted    -0.3494014E-01 (   4.79%)
   displ. norm   :     0.5364117 α      lambda       -0.1506114E-01
   maximum displ.:     0.2325575 α      in ANC's #78, #94, #28, ...

........................................................................
.............................. CYCLE    5 ..............................
........................................................................
   1   -225.2359535 -0.225236E+03  0.217E-02    0.92       0.0  T
   2   -225.2360031 -0.496528E-04  0.175E-02    0.92       1.0  T
   3   -225.2360754 -0.722990E-04  0.668E-03    0.92       1.2  T
   4   -225.2360722  0.322870E-05  0.657E-03    0.92       1.3  T
   5   -225.2360849 -0.127153E-04  0.189E-03    0.92       4.4  T
   6   -225.2360853 -0.401801E-06  0.541E-04    0.92      15.4  T
   7   -225.2360854 -0.104354E-06  0.204E-04    0.92      40.8  T
   8   -225.2360854 -0.677252E-08  0.103E-04    0.92      81.3  T
   9   -225.2360854 -0.426883E-08  0.287E-05    0.92     290.2  T
     SCC iter.                  ...        0 min,  0.605 sec
     gradient                   ...        0 min,  0.393 sec
 * total energy  :  -221.5236009 Eh     change       -0.1158969E-01 Eh
   gradient norm :     0.0455327 Eh/α   predicted    -0.9697652E-02 ( -16.33%)
   displ. norm   :     0.5801347 α      lambda       -0.9556237E-02
   maximum displ.:     0.2407170 α      in ANC's #78, #28, #94, ...

........................................................................
.............................. CYCLE    6 ..............................
........................................................................
   1   -225.2657834 -0.225266E+03  0.198E-02    0.97       0.0  T
   2   -225.2658138 -0.304220E-04  0.123E-02    0.97       1.0  T
   3   -225.2658400 -0.262201E-04  0.613E-03    0.97       1.4  T
   4   -225.2658504 -0.103710E-04  0.442E-03    0.97       1.9  T
   5   -225.2658545 -0.409251E-05  0.143E-03    0.97       5.8  T
   6   -225.2658550 -0.489903E-06  0.387E-04    0.97      21.5  T
   7   -225.2658550 -0.514314E-07  0.162E-04    0.97      51.4  T
   8   -225.2658550 -0.590981E-08  0.758E-05    0.97     109.9  T
     SCC iter.                  ...        0 min,  0.463 sec
     gradient                   ...        0 min,  0.346 sec
 * total energy  :  -221.5304151 Eh     change       -0.6814186E-02 Eh
   gradient norm :     0.0234261 Eh/α   predicted    -0.6386235E-02 (  -6.28%)
   displ. norm   :     0.5207138 α      lambda       -0.4023452E-02
   maximum displ.:     0.2166848 α      in ANC's #28, #20, #27, ...

........................................................................
.............................. CYCLE    7 ..............................
........................................................................
   1   -225.2805278 -0.225281E+03  0.943E-03    1.00       0.0  T
   2   -225.2805329 -0.506609E-05  0.632E-03    1.00       1.3  T
   3   -225.2805393 -0.639634E-05  0.299E-03    1.00       2.8  T
   4   -225.2805399 -0.578174E-06  0.229E-03    1.00       3.6  T
   5   -225.2805412 -0.135620E-05  0.672E-04    1.00      12.4  T
   6   -225.2805414 -0.155605E-06  0.144E-04    1.00      58.0  T
   7   -225.2805414 -0.440858E-08  0.828E-05    1.00     100.6  T
     SCC iter.                  ...        0 min,  0.463 sec
     gradient                   ...        0 min,  0.385 sec
 * total energy  :  -221.5333464 Eh     change       -0.2931358E-02 Eh
   gradient norm :     0.0155436 Eh/α   predicted    -0.2557204E-02 ( -12.76%)
   displ. norm   :     0.5382199 α      lambda       -0.2493753E-02
   maximum displ.:     0.2374315 α      in ANC's #28, #20, #22, ...

........................................................................
.............................. CYCLE    8 ..............................
........................................................................
   1   -225.2883233 -0.225288E+03  0.550E-03    1.01       0.0  T
   2   -225.2883257 -0.239899E-05  0.331E-03    1.01       2.5  T
   3   -225.2883272 -0.149381E-05  0.158E-03    1.01       5.3  T
   4   -225.2883272  0.402940E-07  0.107E-03    1.01       7.8  T
   5   -225.2883274 -0.213263E-06  0.467E-04    1.01      17.9  T
   6   -225.2883275 -0.972323E-07  0.699E-05    1.01     119.2  T
   7   -225.2883275 -0.701817E-09  0.310E-05    1.01     269.2  T
     SCC iter.                  ...        0 min,  0.457 sec
     gradient                   ...        0 min,  0.391 sec
 * total energy  :  -221.5351212 Eh     change       -0.1774779E-02 Eh
   gradient norm :     0.0147579 Eh/α   predicted    -0.1608077E-02 (  -9.39%)
   displ. norm   :     0.5921767 α      lambda       -0.2222258E-02
   maximum displ.:     0.2956887 α      in ANC's #28, #20, #22, ...

........................................................................
.............................. CYCLE    9 ..............................
........................................................................
   1   -225.2910715 -0.225291E+03  0.600E-03    1.02       0.0  T
   2   -225.2910765 -0.498584E-05  0.386E-03    1.02       2.2  T
   3   -225.2910795 -0.303830E-05  0.125E-03    1.02       6.7  T
   4   -225.2910795  0.324904E-07  0.107E-03    1.02       7.8  T
   5   -225.2910797 -0.215446E-06  0.484E-04    1.02      17.2  T
   6   -225.2910798 -0.489032E-07  0.119E-04    1.02      70.2  T
   7   -225.2910798 -0.408579E-08  0.403E-05    1.02     206.6  T
     SCC iter.                  ...        0 min,  0.452 sec
     gradient                   ...        0 min,  0.336 sec
 * total energy  :  -221.5365796 Eh     change       -0.1458351E-02 Eh
   gradient norm :     0.0159313 Eh/α   predicted    -0.1500774E-02 (   2.91%)
   displ. norm   :     0.5161733 α      lambda       -0.1622673E-02
   maximum displ.:     0.2557760 α      in ANC's #20, #28, #22, ...

........................................................................
.............................. CYCLE   10 ..............................
........................................................................
   1   -225.2933153 -0.225293E+03  0.483E-03    1.02       0.0  T
   2   -225.2933180 -0.270995E-05  0.283E-03    1.02       2.9  T
   3   -225.2933198 -0.180145E-05  0.119E-03    1.02       7.0  T
   4   -225.2933202 -0.356631E-06  0.916E-04    1.02       9.1  T
   5   -225.2933204 -0.171494E-06  0.331E-04    1.02      25.2  T
   6   -225.2933204 -0.202887E-07  0.104E-04    1.02      79.9  T
   7   -225.2933204 -0.410341E-08  0.379E-05    1.02     219.9  T
     SCC iter.                  ...        0 min,  0.400 sec
     gradient                   ...        0 min,  0.334 sec
 * total energy  :  -221.5379032 Eh     change       -0.1323662E-02 Eh
   gradient norm :     0.0149523 Eh/α   predicted    -0.1027508E-02 ( -22.37%)
   displ. norm   :     0.5999631 α      lambda       -0.1669752E-02
   maximum displ.:     0.3193979 α      in ANC's #20, #22, #28, ...

........................................................................
.............................. CYCLE   11 ..............................
........................................................................
   1   -225.2928488 -0.225293E+03  0.453E-03    1.01       0.0  T
   2   -225.2928505 -0.164352E-05  0.270E-03    1.01       3.1  T
   3   -225.2928511 -0.622600E-06  0.128E-03    1.01       6.5  T
   4   -225.2928512 -0.796846E-07  0.110E-03    1.01       7.6  T
   5   -225.2928515 -0.289073E-06  0.318E-04    1.01      26.2  T
   6   -225.2928515 -0.398015E-07  0.666E-05    1.01     125.1  T
   7   -225.2928515 -0.817067E-09  0.406E-05    1.01     205.3  T
     SCC iter.                  ...        0 min,  0.392 sec
     gradient                   ...        0 min,  0.331 sec
 * total energy  :  -221.5392554 Eh     change       -0.1352179E-02 Eh
   gradient norm :     0.0124024 Eh/α   predicted    -0.1135402E-02 ( -16.03%)
   displ. norm   :     0.6527669 α      lambda       -0.1344332E-02
   maximum displ.:     0.3767354 α      in ANC's #20, #22, #28, ...

........................................................................
.............................. CYCLE   12 ..............................
........................................................................
   1   -225.2901474 -0.225290E+03  0.261E-03    1.01       0.0  T
   2   -225.2901483 -0.895294E-06  0.188E-03    1.01       4.4  T
   3   -225.2901489 -0.599981E-06  0.972E-04    1.01       8.6  T
   4   -225.2901488  0.619638E-07  0.680E-04    1.01      12.3  T
   5   -225.2901490 -0.132364E-06  0.267E-04    1.01      31.2  T
   6   -225.2901490 -0.197104E-07  0.586E-05    1.01     142.1  T
   7   -225.2901490 -0.113974E-08  0.221E-05    1.01     377.5  T
     SCC iter.                  ...        0 min,  0.392 sec
     gradient                   ...        0 min,  0.332 sec
 * total energy  :  -221.5403419 Eh     change       -0.1086498E-02 Eh
   gradient norm :     0.0098018 Eh/α   predicted    -0.9585894E-03 ( -11.77%)
   displ. norm   :     0.6008024 α      lambda       -0.9856964E-03
   maximum displ.:     0.3742893 α      in ANC's #20, #22, #18, ...

........................................................................
.............................. CYCLE   13 ..............................
........................................................................
   1   -225.2916121 -0.225292E+03  0.384E-03    1.00       0.0  T
   2   -225.2916137 -0.168404E-05  0.258E-03    1.00       3.2  T
   3   -225.2916155 -0.176768E-05  0.130E-03    1.00       6.4  T
   4   -225.2916157 -0.223192E-06  0.754E-04    1.00      11.1  T
   5   -225.2916158 -0.101755E-06  0.368E-04    1.00      22.7  T
   6   -225.2916159 -0.310705E-07  0.874E-05    1.00      95.4  T
   7   -225.2916159 -0.263802E-08  0.309E-05    1.00     269.5  T
     SCC iter.                  ...        0 min,  0.394 sec
     gradient                   ...        0 min,  0.329 sec
 * total energy  :  -221.5411273 Eh     change       -0.7854048E-03 Eh
   gradient norm :     0.0068590 Eh/α   predicted    -0.6707544E-03 ( -14.60%)
   displ. norm   :     0.5712059 α      lambda       -0.6955738E-03
   maximum displ.:     0.3764149 α      in ANC's #20, #22, #18, ...

........................................................................
.............................. CYCLE   14 ..............................
........................................................................
   1   -225.2909619 -0.225291E+03  0.346E-03    1.00       0.0  T
   2   -225.2909627 -0.819549E-06  0.249E-03    1.01       3.3  T
   3   -225.2909643 -0.166084E-05  0.103E-03    1.00       8.1  T
   4   -225.2909645 -0.173100E-06  0.786E-04    1.00      10.6  T
   5   -225.2909646 -0.115503E-06  0.270E-04    1.00      30.9  T
   6   -225.2909647 -0.183462E-07  0.707E-05    1.00     117.9  T
   7   -225.2909647 -0.215323E-08  0.225E-05    1.00     370.3  T
     SCC iter.                  ...        0 min,  0.389 sec
     gradient                   ...        0 min,  0.330 sec
 * total energy  :  -221.5416848 Eh     change       -0.5574774E-03 Eh
   gradient norm :     0.0065134 Eh/α   predicted    -0.4612715E-03 ( -17.26%)
   displ. norm   :     0.4687428 α      lambda       -0.5385404E-03
   maximum displ.:     0.3276074 α      in ANC's #20, #22, #18, ...

........................................................................
.............................. CYCLE   15 ..............................
........................................................................
   1   -225.2960407 -0.225296E+03  0.433E-03    1.00       0.0  T
   2   -225.2960413 -0.579474E-06  0.258E-03    1.00       3.2  T
   3   -225.2960421 -0.737545E-06  0.181E-03    1.00       4.6  T
   4   -225.2960429 -0.869923E-06  0.750E-04    1.00      11.1  T
   5   -225.2960430 -0.493481E-07  0.301E-04    1.00      27.7  T
   6   -225.2960430 -0.382183E-07  0.620E-05    1.00     134.5  T
   7   -225.2960430 -0.143052E-08  0.271E-05    1.00     308.0  T
     SCC iter.                  ...        0 min,  0.401 sec
     gradient                   ...        0 min,  0.330 sec
 * total energy  :  -221.5420874 Eh     change       -0.4026365E-03 Eh
   gradient norm :     0.0071293 Eh/α   predicted    -0.3284360E-03 ( -18.43%)
   displ. norm   :     0.4938529 α      lambda       -0.4614152E-03
   maximum displ.:     0.3629019 α      in ANC's #20, #18, #8, ...

........................................................................
.............................. CYCLE   16 ..............................
........................................................................
   1   -225.2929076 -0.225293E+03  0.260E-03    1.01       0.0  T
   2   -225.2929078 -0.213066E-06  0.151E-03    1.01       5.5  T
   3   -225.2929078 -0.296262E-07  0.937E-04    1.01       8.9  T
   4   -225.2929078 -0.791863E-08  0.437E-04    1.01      19.1  T
   5   -225.2929079 -0.657282E-07  0.156E-04    1.01      53.4  T
   6   -225.2929079 -0.121417E-07  0.210E-05    1.01     396.1  T
     SCC iter.                  ...        0 min,  0.341 sec
     gradient                   ...        0 min,  0.334 sec
 * total energy  :  -221.5424443 Eh     change       -0.3568840E-03 Eh
   gradient norm :     0.0053212 Eh/α   predicted    -0.2869793E-03 ( -19.59%)
   displ. norm   :     0.3047340 α      lambda       -0.2770055E-03
   maximum displ.:     0.2290257 α      in ANC's #20, #8, #18, ...

........................................................................
.............................. CYCLE   17 ..............................
........................................................................
   1   -225.2928708 -0.225293E+03  0.162E-03    1.01       0.0  T
   2   -225.2928712 -0.378080E-06  0.986E-04    1.01       8.5  T
   3   -225.2928713 -0.142870E-06  0.449E-04    1.01      18.6  T
   4   -225.2928713  0.151224E-07  0.286E-04    1.01      29.1  T
   5   -225.2928713 -0.182461E-07  0.140E-04    1.01      59.5  T
   6   -225.2928713 -0.842749E-08  0.252E-05    1.01     330.9  T
     SCC iter.                  ...        0 min,  0.338 sec
     gradient                   ...        0 min,  0.332 sec
 * total energy  :  -221.5426854 Eh     change       -0.2410615E-03 Eh
   gradient norm :     0.0043715 Eh/α   predicted    -0.1513761E-03 ( -37.20%)
   displ. norm   :     0.3605949 α      lambda       -0.3346627E-03
   maximum displ.:     0.2594553 α      in ANC's #20, #8, #17, ...

........................................................................
.............................. CYCLE   18 ..............................
........................................................................
   1   -225.2923145 -0.225292E+03  0.200E-03    1.01       0.0  T
   2   -225.2923150 -0.558399E-06  0.123E-03    1.01       6.8  T
   3   -225.2923154 -0.334856E-06  0.587E-04    1.01      14.2  T
   4   -225.2923154 -0.520552E-07  0.424E-04    1.01      19.7  T
   5   -225.2923155 -0.458890E-07  0.155E-04    1.01      53.9  T
   6   -225.2923155 -0.283669E-08  0.415E-05    1.01     200.9  T
     SCC iter.                  ...        0 min,  0.339 sec
     gradient                   ...        0 min,  0.334 sec
 * total energy  :  -221.5429659 Eh     change       -0.2804984E-03 Eh
   gradient norm :     0.0053564 Eh/α   predicted    -0.1890899E-03 ( -32.59%)
   displ. norm   :     0.4227257 α      lambda       -0.3535658E-03
   maximum displ.:     0.2939124 α      in ANC's #20, #8, #17, ...

........................................................................
.............................. CYCLE   19 ..............................
........................................................................
   1   -225.2901527 -0.225290E+03  0.213E-03    1.01       0.0  T
   2   -225.2901532 -0.561980E-06  0.139E-03    1.01       6.0  T
   3   -225.2901534 -0.229824E-06  0.851E-04    1.01       9.8  T
   4   -225.2901534  0.737845E-08  0.517E-04    1.01      16.1  T
   5   -225.2901535 -0.774817E-07  0.200E-04    1.01      41.7  T
   6   -225.2901535 -0.143349E-07  0.438E-05    1.01     190.2  T
     SCC iter.                  ...        0 min,  0.343 sec
     gradient                   ...        0 min,  0.330 sec
 * total energy  :  -221.5432434 Eh     change       -0.2775011E-03 Eh
   gradient norm :     0.0070572 Eh/α   predicted    -0.2083745E-03 ( -24.91%)
   displ. norm   :     0.4361398 α      lambda       -0.3074376E-03
   maximum displ.:     0.2932130 α      in ANC's #20, #8, #17, ...

........................................................................
.............................. CYCLE   20 ..............................
........................................................................
   1   -225.2883940 -0.225288E+03  0.141E-03    1.01       0.0  T
   2   -225.2883941 -0.138913E-06  0.871E-04    1.01       9.6  T
   3   -225.2883942 -0.367054E-07  0.514E-04    1.01      16.2  T
   4   -225.2883942 -0.279027E-08  0.300E-04    1.01      27.8  T
   5   -225.2883942 -0.241181E-07  0.104E-04    1.01      80.5  T
   6   -225.2883942 -0.446269E-08  0.295E-05    1.01     282.4  T
     SCC iter.                  ...        0 min,  0.349 sec
     gradient                   ...        0 min,  0.393 sec
 * total energy  :  -221.5434881 Eh     change       -0.2447264E-03 Eh
   gradient norm :     0.0065306 Eh/α   predicted    -0.1829600E-03 ( -25.24%)
   displ. norm   :     0.4571180 α      lambda       -0.2735844E-03
   maximum displ.:     0.3065333 α      in ANC's #20, #8, #9, ...
 * RMSD in coord.:     0.5940956 α      energy gain  -0.4962870E+00 Eh

generating ANC from model Hessian ...
Using Lindh-Hessian (1995)
 Shifting diagonal of input Hessian by    9.9995381575520813E-003
 Lowest  eigenvalues of input Hessian
    0.000000    0.000000    0.000000    0.000000    0.000000    0.000000
    0.010000    0.010004    0.010014    0.010019    0.010039    0.010098
    0.010107    0.010241    0.010295    0.010295    0.010387    0.010394
 Highest eigenvalues
    2.187573    2.208949    2.209216    2.232182    2.648567    2.982854


........................................................................
.............................. CYCLE   21 ..............................
........................................................................
   1   -225.2875251 -0.225288E+03  0.165E-03    1.01       0.0  T
   2   -225.2875253 -0.239661E-06  0.892E-04    1.01       9.3  T
   3   -225.2875254 -0.737006E-07  0.503E-04    1.01      16.6  T
   4   -225.2875254 -0.106266E-07  0.345E-04    1.01      24.2  T
   5   -225.2875255 -0.288045E-07  0.133E-04    1.01      62.6  T
   6   -225.2875255 -0.649146E-08  0.244E-05    1.01     341.8  T
     SCC iter.                  ...        0 min,  0.380 sec
     gradient                   ...        0 min,  0.400 sec
 * total energy  :  -221.5437096 Eh     change       -0.2214851E-03 Eh
   gradient norm :     0.0049345 Eh/α   predicted     0.0000000E+00 (-100.00%)
   displ. norm   :     0.0678032 α      lambda       -0.6317673E-04
   maximum displ.:     0.0355171 α      in ANC's #19, #29, #10, ...

........................................................................
.............................. CYCLE   22 ..............................
........................................................................
   1   -225.2900338 -0.225290E+03  0.113E-03    1.01       0.0  T
   2   -225.2900340 -0.177122E-06  0.720E-04    1.01      11.6  T
   3   -225.2900341 -0.676870E-07  0.400E-04    1.01      20.9  T
   4   -225.2900341  0.791167E-08  0.266E-04    1.01      31.3  T
   5   -225.2900341 -0.209967E-07  0.114E-04    1.01      73.1  T
   6   -225.2900341 -0.416736E-08  0.156E-05    1.01     535.7  T
     SCC iter.                  ...        0 min,  0.388 sec
     gradient                   ...        0 min,  0.393 sec
 * total energy  :  -221.5437802 Eh     change       -0.7065901E-04 Eh
   gradient norm :     0.0027203 Eh/α   predicted    -0.4425966E-04 ( -37.36%)
   displ. norm   :     0.2605279 α      lambda       -0.2454376E-03
   maximum displ.:     0.1460922 α      in ANC's #19, #29, #10, ...

........................................................................
.............................. CYCLE   23 ..............................
........................................................................
   1   -225.2963799 -0.225296E+03  0.344E-03    1.00       0.0  T
   2   -225.2963817 -0.176226E-05  0.210E-03    1.01       4.0  T
   3   -225.2963824 -0.724012E-06  0.112E-03    1.01       7.4  T
   4   -225.2963824 -0.162342E-07  0.740E-04    1.01      11.3  T
   5   -225.2963825 -0.126642E-06  0.348E-04    1.01      24.0  T
   6   -225.2963826 -0.312969E-07  0.561E-05    1.01     148.6  T
   7   -225.2963826 -0.859387E-09  0.257E-05    1.01     324.1  T
     SCC iter.                  ...        0 min,  0.453 sec
     gradient                   ...        0 min,  0.386 sec
 * total energy  :  -221.5438181 Eh     change       -0.3784492E-04 Eh
   gradient norm :     0.0067397 Eh/α   predicted    -0.1310501E-03 ( 246.28%)
   displ. norm   :     0.1403271 α      lambda       -0.2473187E-03
   maximum displ.:     0.0685476 α      in ANC's #19, #21, #29, ...

........................................................................
.............................. CYCLE   24 ..............................
........................................................................
   1   -225.2964267 -0.225296E+03  0.953E-04    1.00       0.0  T
   2   -225.2964267 -0.718489E-07  0.458E-04    1.00      18.2  T
   3   -225.2964267 -0.192769E-07  0.311E-04    1.00      26.8  T
   4   -225.2964268 -0.134098E-07  0.160E-04    1.00      52.2  T
   5   -225.2964268 -0.497204E-08  0.726E-05    1.00     114.7  T
     SCC iter.                  ...        0 min,  0.312 sec
     gradient                   ...        0 min,  0.383 sec
 * total energy  :  -221.5439463 Eh     change       -0.1281805E-03 Eh
   gradient norm :     0.0058412 Eh/α   predicted    -0.1261005E-03 (  -1.62%)
   displ. norm   :     0.0777923 α      lambda       -0.7280724E-04
   maximum displ.:     0.0483999 α      in ANC's #19, #10, #4, ...

........................................................................
.............................. CYCLE   25 ..............................
........................................................................
   1   -225.2947076 -0.225295E+03  0.100E-03    1.01       0.0  T
   2   -225.2947077 -0.103901E-06  0.669E-04    1.01      12.5  T
   3   -225.2947078 -0.672583E-07  0.386E-04    1.01      21.6  T
   4   -225.2947078 -0.443242E-08  0.252E-04    1.01      33.0  T
   5   -225.2947078 -0.194967E-07  0.860E-05    1.01      96.9  T
   6   -225.2947078 -0.144226E-08  0.117E-05    1.01     709.3  T
     SCC iter.                  ...        0 min,  0.442 sec
     gradient                   ...        0 min,  0.388 sec
 * total energy  :  -221.5440087 Eh     change       -0.6240854E-04 Eh
   gradient norm :     0.0036377 Eh/α   predicted    -0.3662401E-04 ( -41.32%)
   displ. norm   :     0.2384094 α      lambda       -0.1523258E-03
   maximum displ.:     0.1435058 α      in ANC's #19, #10, #4, ...

........................................................................
.............................. CYCLE   26 ..............................
........................................................................
   1   -225.2914231 -0.225291E+03  0.199E-03    1.01       0.0  T
   2   -225.2914235 -0.448021E-06  0.132E-03    1.01       6.3  T
   3   -225.2914239 -0.349528E-06  0.764E-04    1.01      10.9  T
   4   -225.2914240 -0.726020E-07  0.466E-04    1.01      17.9  T
   5   -225.2914240 -0.484236E-07  0.155E-04    1.01      53.7  T
   6   -225.2914240 -0.400414E-08  0.220E-05    1.01     379.6  T
     SCC iter.                  ...        0 min,  0.418 sec
     gradient                   ...        0 min,  0.380 sec
 * total energy  :  -221.5441189 Eh     change       -0.1102289E-03 Eh
   gradient norm :     0.0019135 Eh/α   predicted    -0.8049234E-04 ( -26.98%)
   displ. norm   :     0.4208884 α      lambda       -0.1053398E-03
   maximum displ.:     0.2482632 α      in ANC's #19, #10, #4, ...

........................................................................
.............................. CYCLE   27 ..............................
........................................................................
   1   -225.2892505 -0.225289E+03  0.161E-03    1.01       0.0  T
   2   -225.2892508 -0.288467E-06  0.101E-03    1.01       8.3  T
   3   -225.2892509 -0.192471E-06  0.613E-04    1.01      13.6  T
   4   -225.2892510 -0.598570E-07  0.349E-04    1.01      23.9  T
   5   -225.2892510 -0.266478E-07  0.121E-04    1.01      68.8  T
   6   -225.2892510 -0.274724E-08  0.169E-05    1.01     494.5  T
     SCC iter.                  ...        0 min,  0.424 sec
     gradient                   ...        0 min,  0.378 sec
 * total energy  :  -221.5442151 Eh     change       -0.9614917E-04 Eh
   gradient norm :     0.0044885 Eh/α   predicted    -0.5682039E-04 ( -40.90%)
   displ. norm   :     0.2505608 α      lambda       -0.1033213E-03
   maximum displ.:     0.1462832 α      in ANC's #19, #10, #4, ...

........................................................................
.............................. CYCLE   28 ..............................
........................................................................
   1   -225.2893857 -0.225289E+03  0.617E-04    1.01       0.0  T
   2   -225.2893858 -0.363638E-07  0.378E-04    1.01      22.0  T
   3   -225.2893858 -0.234220E-07  0.170E-04    1.01      49.1  T
   4   -225.2893858 -0.582929E-09  0.107E-04    1.01      77.6  T
     SCC iter.                  ...        0 min,  0.266 sec
     gradient                   ...        0 min,  0.328 sec
 * total energy  :  -221.5442922 Eh     change       -0.7711759E-04 Eh
   gradient norm :     0.0040224 Eh/α   predicted    -0.5490685E-04 ( -28.80%)
   displ. norm   :     0.2913003 α      lambda       -0.1169903E-03
   maximum displ.:     0.1680283 α      in ANC's #19, #10, #4, ...

........................................................................
.............................. CYCLE   29 ..............................
........................................................................
   1   -225.2918922 -0.225292E+03  0.118E-03    1.01       0.0  T
   2   -225.2918923 -0.120495E-06  0.740E-04    1.01      11.3  T
   3   -225.2918924 -0.446774E-07  0.386E-04    1.01      21.6  T
   4   -225.2918924  0.101745E-07  0.296E-04    1.01      28.2  T
   5   -225.2918924 -0.286477E-07  0.988E-05    1.01      84.3  T
   6   -225.2918924 -0.276813E-08  0.139E-05    1.01     597.6  T
     SCC iter.                  ...        0 min,  0.357 sec
     gradient                   ...        0 min,  0.328 sec
 * total energy  :  -221.5443903 Eh     change       -0.9816654E-04 Eh
   gradient norm :     0.0025977 Eh/α   predicted    -0.6346051E-04 ( -35.35%)
   displ. norm   :     0.4097842 α      lambda       -0.1463211E-03
   maximum displ.:     0.2303895 α      in ANC's #19, #10, #4, ...

........................................................................
.............................. CYCLE   30 ..............................
........................................................................
   1   -225.2938502 -0.225294E+03  0.134E-03    1.01       0.0  T
   2   -225.2938504 -0.193433E-06  0.879E-04    1.01       9.5  T
   3   -225.2938505 -0.116279E-06  0.439E-04    1.01      19.0  T
   4   -225.2938505  0.281543E-08  0.353E-04    1.01      23.6  T
   5   -225.2938506 -0.370348E-07  0.121E-04    1.01      69.0  T
   6   -225.2938506 -0.312349E-08  0.169E-05    1.01     494.6  T
     SCC iter.                  ...        0 min,  0.375 sec
     gradient                   ...        0 min,  0.334 sec
 * total energy  :  -221.5445088 Eh     change       -0.1184550E-03 Eh
   gradient norm :     0.0024344 Eh/α   predicted    -0.8544877E-04 ( -27.86%)
   displ. norm   :     0.4277991 α      lambda       -0.1213721E-03
   maximum displ.:     0.2339971 α      in ANC's #19, #10, #4, ...

........................................................................
.............................. CYCLE   31 ..............................
........................................................................
   1   -225.2932433 -0.225293E+03  0.910E-04    1.01       0.0  T
   2   -225.2932434 -0.969364E-07  0.578E-04    1.01      14.4  T
   3   -225.2932435 -0.565779E-07  0.285E-04    1.01      29.2  T
   4   -225.2932435 -0.266442E-08  0.225E-04    1.01      37.1  T
   5   -225.2932435 -0.134362E-07  0.805E-05    1.01     103.5  T
   6   -225.2932435 -0.151400E-08  0.139E-05    1.01     600.7  T
     SCC iter.                  ...        0 min,  0.362 sec
     gradient                   ...        0 min,  0.332 sec
 * total energy  :  -221.5446094 Eh     change       -0.1006077E-03 Eh
   gradient norm :     0.0029010 Eh/α   predicted    -0.7179339E-04 ( -28.64%)
   displ. norm   :     0.3878956 α      lambda       -0.1023003E-03
   maximum displ.:     0.2162672 α      in ANC's #10, #19, #4, ...

........................................................................
.............................. CYCLE   32 ..............................
........................................................................
   1   -225.2916757 -0.225292E+03  0.777E-04    1.01       0.0  T
   2   -225.2916757 -0.356520E-07  0.451E-04    1.01      18.5  T
   3   -225.2916757 -0.608867E-08  0.278E-04    1.01      29.9  T
   4   -225.2916757 -0.465880E-08  0.182E-04    1.01      45.8  T
   5   -225.2916757 -0.111767E-07  0.507E-05    1.01     164.4  T
     SCC iter.                  ...        0 min,  0.321 sec
     gradient                   ...        0 min,  0.330 sec
 * total energy  :  -221.5446937 Eh     change       -0.8426673E-04 Eh
   gradient norm :     0.0025731 Eh/α   predicted    -0.5884769E-04 ( -30.16%)
   displ. norm   :     0.3194037 α      lambda       -0.7973608E-04
   maximum displ.:     0.1874072 α      in ANC's #10, #19, #4, ...

........................................................................
.............................. CYCLE   33 ..............................
........................................................................
   1   -225.2903142 -0.225290E+03  0.753E-04    1.01       0.0  T
   2   -225.2903143 -0.242107E-07  0.429E-04    1.01      19.4  T
   3   -225.2903143 -0.189630E-08  0.258E-04    1.01      32.3  T
   4   -225.2903143 -0.337855E-08  0.138E-04    1.01      60.3  T
   5   -225.2903143 -0.608676E-08  0.506E-05    1.01     164.7  T
     SCC iter.                  ...        0 min,  0.310 sec
     gradient                   ...        0 min,  0.333 sec
 * total energy  :  -221.5447577 Eh     change       -0.6402295E-04 Eh
   gradient norm :     0.0018073 Eh/α   predicted    -0.4393938E-04 ( -31.37%)
   displ. norm   :     0.3450711 α      lambda       -0.5439064E-04
   maximum displ.:     0.2165449 α      in ANC's #10, #4, #19, ...

........................................................................
.............................. CYCLE   34 ..............................
........................................................................
   1   -225.2894045 -0.225289E+03  0.100E-03    1.01       0.0  T
   2   -225.2894045 -0.719023E-07  0.555E-04    1.01      15.0  T
   3   -225.2894046 -0.288174E-07  0.318E-04    1.01      26.2  T
   4   -225.2894046 -0.690588E-08  0.169E-04    1.01      49.3  T
   5   -225.2894046 -0.409329E-08  0.786E-05    1.01     106.0  T
     SCC iter.                  ...        0 min,  0.297 sec
     gradient                   ...        0 min,  0.328 sec
 * total energy  :  -221.5448176 Eh     change       -0.5989358E-04 Eh
   gradient norm :     0.0014092 Eh/α   predicted    -0.2863539E-04 ( -52.19%)
   displ. norm   :     0.1814641 α      lambda       -0.3227827E-04
   maximum displ.:     0.1228397 α      in ANC's #10, #6, #4, ...

........................................................................
.............................. CYCLE   35 ..............................
........................................................................
   1   -225.2900150 -0.225290E+03  0.633E-04    1.01       0.0  T
   2   -225.2900150 -0.477675E-07  0.353E-04    1.01      23.6  T
   3   -225.2900151 -0.325294E-07  0.162E-04    1.01      51.5  T
   4   -225.2900151 -0.313310E-08  0.894E-05    1.01      93.2  T
     SCC iter.                  ...        0 min,  0.235 sec
     gradient                   ...        0 min,  0.330 sec
 * total energy  :  -221.5448605 Eh     change       -0.4290502E-04 Eh
   gradient norm :     0.0013621 Eh/α   predicted    -0.1637660E-04 ( -61.83%)
   displ. norm   :     0.2408803 α      lambda       -0.5425290E-04
   maximum displ.:     0.1531121 α      in ANC's #10, #6, #4, ...

........................................................................
.............................. CYCLE   36 ..............................
........................................................................
   1   -225.2916696 -0.225292E+03  0.896E-04    1.01       0.0  T
   2   -225.2916697 -0.895076E-07  0.540E-04    1.01      15.4  T
   3   -225.2916698 -0.739136E-07  0.255E-04    1.01      32.6  T
   4   -225.2916698 -0.625798E-08  0.149E-04    1.01      55.8  T
   5   -225.2916698 -0.711680E-10  0.918E-05    1.01      90.8  T
     SCC iter.                  ...        0 min,  0.291 sec
     gradient                   ...        0 min,  0.329 sec
 * total energy  :  -221.5449304 Eh     change       -0.6995663E-04 Eh
   gradient norm :     0.0015630 Eh/α   predicted    -0.2782764E-04 ( -60.22%)
   displ. norm   :     0.3807325 α      lambda       -0.7369016E-04
   maximum displ.:     0.2372457 α      in ANC's #10, #6, #11, ...

........................................................................
.............................. CYCLE   37 ..............................
........................................................................
   1   -225.2921828 -0.225292E+03  0.985E-04    1.01       0.0  T
   2   -225.2921829 -0.101829E-06  0.533E-04    1.01      15.6  T
   3   -225.2921830 -0.579442E-07  0.271E-04    1.01      30.8  T
   4   -225.2921830 -0.714016E-08  0.143E-04    1.01      58.3  T
   5   -225.2921830  0.191790E-09  0.788E-05    1.01     105.7  T
     SCC iter.                  ...        0 min,  0.295 sec
     gradient                   ...        0 min,  0.328 sec
 * total energy  :  -221.5450218 Eh     change       -0.9132696E-04 Eh
   gradient norm :     0.0022656 Eh/α   predicted    -0.3921941E-04 ( -57.06%)
   displ. norm   :     0.2871837 α      lambda       -0.7019419E-04
   maximum displ.:     0.1785026 α      in ANC's #10, #6, #4, ...

........................................................................
.............................. CYCLE   38 ..............................
........................................................................
   1   -225.2924841 -0.225292E+03  0.427E-04    1.01       0.0  T
   2   -225.2924841 -0.112169E-07  0.241E-04    1.01      34.6  T
   3   -225.2924841 -0.904888E-08  0.145E-04    1.01      57.3  T
   4   -225.2924841 -0.585695E-08  0.829E-05    1.01     100.5  T
     SCC iter.                  ...        0 min,  0.222 sec
     gradient                   ...        0 min,  0.330 sec
 * total energy  :  -221.5450841 Eh     change       -0.6233102E-04 Eh
   gradient norm :     0.0024161 Eh/α   predicted    -0.3799536E-04 ( -39.04%)
   displ. norm   :     0.3757282 α      lambda       -0.8746795E-04
   maximum displ.:     0.2343769 α      in ANC's #10, #6, #4, ...

........................................................................
.............................. CYCLE   39 ..............................
........................................................................
   1   -225.2919766 -0.225292E+03  0.620E-04    1.01       0.0  T
   2   -225.2919766 -0.219844E-07  0.407E-04    1.01      20.5  T
   3   -225.2919767 -0.507724E-07  0.188E-04    1.01      44.3  T
   4   -225.2919767 -0.102281E-07  0.115E-04    1.01      72.6  T
     SCC iter.                  ...        0 min,  0.240 sec
     gradient                   ...        0 min,  0.334 sec
 * total energy  :  -221.5451595 Eh     change       -0.7540308E-04 Eh
   gradient norm :     0.0022818 Eh/α   predicted    -0.4991107E-04 ( -33.81%)
   displ. norm   :     0.3967374 α      lambda       -0.8343208E-04
   maximum displ.:     0.2513029 α      in ANC's #10, #6, #4, ...

........................................................................
.............................. CYCLE   40 ..............................
........................................................................
   1   -225.2910010 -0.225291E+03  0.807E-04    1.01       0.0  T
   2   -225.2910010 -0.496319E-07  0.586E-04    1.01      14.2  T
   3   -225.2910012 -0.119379E-06  0.219E-04    1.01      38.1  T
   4   -225.2910012 -0.820265E-08  0.155E-04    1.01      53.7  T
   5   -225.2910012 -0.545512E-08  0.584E-05    1.01     142.7  T
     SCC iter.                  ...        0 min,  0.309 sec
     gradient                   ...        0 min,  0.394 sec
 * total energy  :  -221.5452303 Eh     change       -0.7075502E-04 Eh
   gradient norm :     0.0019164 Eh/α   predicted    -0.4828567E-04 ( -31.76%)
   displ. norm   :     0.5670428 α      lambda       -0.7282619E-04
   maximum displ.:     0.3662784 α      in ANC's #10, #6, #4, ...

........................................................................
.............................. CYCLE   41 ..............................
........................................................................
   1   -225.2892509 -0.225289E+03  0.133E-03    1.01       0.0  T
   2   -225.2892511 -0.171530E-06  0.100E-03    1.01       8.3  T
   3   -225.2892515 -0.361484E-06  0.336E-04    1.01      24.8  T
   4   -225.2892515 -0.114585E-07  0.251E-04    1.01      33.3  T
   5   -225.2892515 -0.131295E-07  0.103E-04    1.01      81.3  T
   6   -225.2892515 -0.235397E-08  0.262E-05    1.01     318.2  T
     SCC iter.                  ...        0 min,  0.428 sec
     gradient                   ...        0 min,  0.328 sec
 * total energy  :  -221.5453150 Eh     change       -0.8474118E-04 Eh
   gradient norm :     0.0016180 Eh/α   predicted    -0.4161880E-04 ( -50.89%)
   displ. norm   :     0.4150122 α      lambda       -0.5078694E-04
   maximum displ.:     0.2738315 α      in ANC's #10, #6, #4, ...

........................................................................
.............................. CYCLE   42 ..............................
........................................................................
   1   -225.2886212 -0.225289E+03  0.873E-04    1.01       0.0  T
   2   -225.2886213 -0.720484E-07  0.659E-04    1.01      12.6  T
   3   -225.2886214 -0.152171E-06  0.237E-04    1.01      35.1  T
   4   -225.2886214 -0.465386E-08  0.171E-04    1.01      48.7  T
   5   -225.2886214 -0.576222E-08  0.705E-05    1.01     118.3  T
     SCC iter.                  ...        0 min,  0.294 sec
     gradient                   ...        0 min,  0.344 sec
 * total energy  :  -221.5453804 Eh     change       -0.6534345E-04 Eh
   gradient norm :     0.0016499 Eh/α   predicted    -0.2733928E-04 ( -58.16%)
   displ. norm   :     0.4954227 α      lambda       -0.6738504E-04
   maximum displ.:     0.3253961 α      in ANC's #10, #6, #4, ...
 * RMSD in coord.:     0.4905150 α      energy gain  -0.1892249E-02 Eh

generating ANC from model Hessian ...
Using Lindh-Hessian (1995)
 Shifting diagonal of input Hessian by    1.0000099355989554E-002
 Lowest  eigenvalues of input Hessian
    0.010000    0.000000    0.000000    0.000000    0.000000    0.000000
    0.000000    0.010004    0.010014    0.010022    0.010063    0.010095
    0.010115    0.010251    0.010297    0.010298    0.010400    0.010410
 Highest eigenvalues
    2.185918    2.212721    2.212950    2.230858    2.647260    2.980400


........................................................................
.............................. CYCLE   43 ..............................
........................................................................
   1   -225.2880571 -0.225288E+03  0.797E-04    1.01       0.0  T
   2   -225.2880572 -0.438422E-07  0.551E-04    1.01      15.1  T
   3   -225.2880572 -0.843512E-07  0.260E-04    1.01      32.1  T
   4   -225.2880572 -0.858012E-08  0.162E-04    1.01      51.5  T
   5   -225.2880572 -0.506583E-08  0.633E-05    1.01     131.6  T
     SCC iter.                  ...        0 min,  0.299 sec
     gradient                   ...        0 min,  0.391 sec
 * total energy  :  -221.5454656 Eh     change       -0.8528738E-04 Eh
   gradient norm :     0.0018378 Eh/α   predicted     0.0000000E+00 (-100.00%)
   displ. norm   :     0.0507039 α      lambda       -0.1752586E-04
   maximum displ.:     0.0200208 α      in ANC's #10, #28, #22, ...

........................................................................
.............................. CYCLE   44 ..............................
........................................................................
   1   -225.2894706 -0.225289E+03  0.671E-04    1.01       0.0  T
   2   -225.2894707 -0.462178E-07  0.395E-04    1.01      21.1  T
   3   -225.2894707 -0.345693E-07  0.203E-04    1.01      41.0  T
   4   -225.2894707 -0.356766E-08  0.121E-04    1.01      68.7  T
   5   -225.2894707 -0.208854E-08  0.568E-05    1.01     146.6  T
     SCC iter.                  ...        0 min,  0.356 sec
     gradient                   ...        0 min,  0.354 sec
 * total energy  :  -221.5454879 Eh     change       -0.2226182E-04 Eh
   gradient norm :     0.0011433 Eh/α   predicted    -0.9684093E-05 ( -56.50%)
   displ. norm   :     0.3331693 α      lambda       -0.1064770E-03
   maximum displ.:     0.1410476 α      in ANC's #22, #10, #28, ...

........................................................................
.............................. CYCLE   45 ..............................
........................................................................
   1   -225.2955322 -0.225296E+03  0.379E-03    1.01       0.0  T
   2   -225.2955340 -0.178305E-05  0.246E-03    1.01       3.4  T
   3   -225.2955356 -0.163558E-05  0.103E-03    1.01       8.1  T
   4   -225.2955357 -0.537721E-07  0.670E-04    1.01      12.4  T
   5   -225.2955358 -0.697459E-07  0.335E-04    1.01      24.9  T
   6   -225.2955358 -0.416231E-07  0.655E-05    1.01     127.1  T
   7   -225.2955358 -0.151815E-08  0.239E-05    1.01     348.8  T
     SCC iter.                  ...        0 min,  0.505 sec
     gradient                   ...        0 min,  0.378 sec
 * total energy  :  -221.5453204 Eh     change        0.1675310E-03 Eh
   gradient norm :     0.0073631 Eh/α   predicted    -0.5586529E-04 (-133.35%)
   displ. norm   :     0.0729022 α      lambda       -0.2857909E-03
   maximum displ.:     0.0230051 α      in ANC's #18, #16, #22, ...

........................................................................
.............................. CYCLE   46 ..............................
........................................................................
   1   -225.2939624 -0.225294E+03  0.156E-03    1.01       0.0  T
   2   -225.2939625 -0.176983E-06  0.104E-03    1.01       8.0  T
   3   -225.2939626 -0.977465E-07  0.557E-04    1.01      14.9  T
   4   -225.2939626  0.124583E-07  0.304E-04    1.01      27.4  T
   5   -225.2939627 -0.277033E-07  0.122E-04    1.01      68.2  T
   6   -225.2939627 -0.701007E-08  0.228E-05    1.01     366.1  T
     SCC iter.                  ...        0 min,  0.371 sec
     gradient                   ...        0 min,  0.377 sec
 * total energy  :  -221.5455056 Eh     change       -0.1852446E-03 Eh
   gradient norm :     0.0033351 Eh/α   predicted    -0.1436557E-03 ( -22.45%)
   displ. norm   :     0.0994677 α      lambda       -0.1029817E-03
   maximum displ.:     0.0440020 α      in ANC's #23, #22, #32, ...

........................................................................
.............................. CYCLE   47 ..............................
........................................................................
   1   -225.2908733 -0.225291E+03  0.165E-03    1.01       0.0  T
   2   -225.2908736 -0.291401E-06  0.942E-04    1.01       8.8  T
   3   -225.2908738 -0.171955E-06  0.503E-04    1.01      16.6  T
   4   -225.2908738 -0.215721E-07  0.291E-04    1.01      28.6  T
   5   -225.2908738 -0.118854E-07  0.136E-04    1.01      61.3  T
   6   -225.2908738 -0.778201E-08  0.296E-05    1.01     281.1  T
     SCC iter.                  ...        0 min,  0.379 sec
     gradient                   ...        0 min,  0.373 sec
 * total energy  :  -221.5455149 Eh     change       -0.9330981E-05 Eh
   gradient norm :     0.0021345 Eh/α   predicted    -0.5200144E-04 ( 457.30%)
   displ. norm   :     0.0559563 α      lambda       -0.6478429E-04
   maximum displ.:     0.0218578 α      in ANC's #22, #10, #19, ...

........................................................................
.............................. CYCLE   48 ..............................
........................................................................
   1   -225.2916169 -0.225292E+03  0.368E-04    1.01       0.0  T
   2   -225.2916169 -0.480310E-08  0.220E-04    1.01      38.0  T
   3   -225.2916169 -0.451470E-08  0.142E-04    1.01      58.5  T
   4   -225.2916170 -0.159068E-08  0.778E-05    1.01     107.1  T
     SCC iter.                  ...        0 min,  0.243 sec
     gradient                   ...        0 min,  0.380 sec
 * total energy  :  -221.5455468 Eh     change       -0.3189341E-04 Eh
   gradient norm :     0.0008958 Eh/α   predicted    -0.3249814E-04 (   1.90%)
   displ. norm   :     0.0534054 α      lambda       -0.8474292E-05
   maximum displ.:     0.0303601 α      in ANC's #10, #22, #9, ...

........................................................................
.............................. CYCLE   49 ..............................
........................................................................
   1   -225.2921809 -0.225292E+03  0.246E-04    1.01       0.0  T
   2   -225.2921809 -0.349939E-08  0.155E-04    1.01      53.7  T
   3   -225.2921809 -0.951786E-09  0.878E-05    1.01      94.9  T
     SCC iter.                  ...        0 min,  0.190 sec
     gradient                   ...        0 min,  0.384 sec
 * total energy  :  -221.5455565 Eh     change       -0.9681104E-05 Eh
   gradient norm :     0.0009441 Eh/α   predicted    -0.4243645E-05 ( -56.17%)
   displ. norm   :     0.1213166 α      lambda       -0.1663600E-04
   maximum displ.:     0.0688152 α      in ANC's #10, #9, #22, ...

........................................................................
.............................. CYCLE   50 ..............................
........................................................................
   1   -225.2918523 -0.225292E+03  0.441E-04    1.01       0.0  T
   2   -225.2918523 -0.257023E-07  0.296E-04    1.01      28.1  T
   3   -225.2918523 -0.263483E-07  0.110E-04    1.01      75.4  T
   4   -225.2918523 -0.104956E-08  0.684E-05    1.01     121.9  T
     SCC iter.                  ...        0 min,  0.251 sec
     gradient                   ...        0 min,  0.382 sec
 * total energy  :  -221.5455774 Eh     change       -0.2085609E-04 Eh
   gradient norm :     0.0006597 Eh/α   predicted    -0.8376748E-05 ( -59.84%)
   displ. norm   :     0.2314550 α      lambda       -0.2351883E-04
   maximum displ.:     0.1302268 α      in ANC's #10, #9, #22, ...

........................................................................
.............................. CYCLE   51 ..............................
........................................................................
   1   -225.2910503 -0.225291E+03  0.569E-04    1.01       0.0  T
   2   -225.2910504 -0.346366E-07  0.364E-04    1.01      22.9  T
   3   -225.2910504 -0.301835E-07  0.177E-04    1.01      47.0  T
   4   -225.2910504 -0.181223E-08  0.106E-04    1.01      78.7  T
     SCC iter.                  ...        0 min,  0.249 sec
     gradient                   ...        0 min,  0.386 sec
 * total energy  :  -221.5456039 Eh     change       -0.2648505E-04 Eh
   gradient norm :     0.0007778 Eh/α   predicted    -0.1203985E-04 ( -54.54%)
   displ. norm   :     0.1792468 α      lambda       -0.1226038E-04
   maximum displ.:     0.1055706 α      in ANC's #10, #9, #8, ...

........................................................................
.............................. CYCLE   52 ..............................
........................................................................
   1   -225.2907849 -0.225291E+03  0.300E-04    1.01       0.0  T
   2   -225.2907849 -0.653338E-08  0.232E-04    1.01      35.9  T
   3   -225.2907849 -0.117703E-07  0.112E-04    1.01      74.6  T
   4   -225.2907849  0.125340E-09  0.705E-05    1.01     118.1  T
     SCC iter.                  ...        0 min,  0.261 sec
     gradient                   ...        0 min,  0.389 sec
 * total energy  :  -221.5456181 Eh     change       -0.1423339E-04 Eh
   gradient norm :     0.0007328 Eh/α   predicted    -0.6219253E-05 ( -56.31%)
   displ. norm   :     0.1180245 α      lambda       -0.8166789E-05
   maximum displ.:     0.0738923 α      in ANC's #10, #9, #6, ...

........................................................................
.............................. CYCLE   53 ..............................
........................................................................
   1   -225.2907729 -0.225291E+03  0.177E-04    1.01       0.0  T
   2   -225.2907729 -0.217122E-08  0.114E-04    1.01      72.9  T
   3   -225.2907729 -0.181231E-08  0.632E-05    1.01     131.8  T
     SCC iter.                  ...        0 min,  0.193 sec
     gradient                   ...        0 min,  0.392 sec
 * total energy  :  -221.5456289 Eh     change       -0.1076588E-04 Eh
   gradient norm :     0.0005929 Eh/α   predicted    -0.4112644E-05 ( -61.80%)
   displ. norm   :     0.1262447 α      lambda       -0.1117273E-04
   maximum displ.:     0.0803731 α      in ANC's #10, #9, #6, ...

........................................................................
.............................. CYCLE   54 ..............................
........................................................................
   1   -225.2909735 -0.225291E+03  0.254E-04    1.01       0.0  T
   2   -225.2909735 -0.588764E-08  0.105E-04    1.01      79.7  T
   3   -225.2909735 -0.677147E-09  0.640E-05    1.01     130.3  T
     SCC iter.                  ...        0 min,  0.188 sec
     gradient                   ...        0 min,  0.384 sec
 * total energy  :  -221.5456438 Eh     change       -0.1496427E-04 Eh
   gradient norm :     0.0005172 Eh/α   predicted    -0.5628938E-05 ( -62.38%)
   displ. norm   :     0.1985709 α      lambda       -0.1766490E-04
   maximum displ.:     0.1247920 α      in ANC's #10, #9, #6, ...

........................................................................
.............................. CYCLE   55 ..............................
........................................................................
   1   -225.2909287 -0.225291E+03  0.396E-04    1.01       0.0  T
   2   -225.2909287 -0.139184E-07  0.160E-04    1.01      52.0  T
   3   -225.2909287 -0.197483E-08  0.911E-05    1.01      91.5  T
     SCC iter.                  ...        0 min,  0.189 sec
     gradient                   ...        0 min,  0.385 sec
 * total energy  :  -221.5456660 Eh     change       -0.2220970E-04 Eh
   gradient norm :     0.0005651 Eh/α   predicted    -0.8989110E-05 ( -59.53%)
   displ. norm   :     0.2413159 α      lambda       -0.1790114E-04
   maximum displ.:     0.1516564 α      in ANC's #10, #9, #6, ...

........................................................................
.............................. CYCLE   56 ..............................
........................................................................
   1   -225.2909983 -0.225291E+03  0.454E-04    1.01       0.0  T
   2   -225.2909983 -0.175102E-07  0.211E-04    1.01      39.5  T
   3   -225.2909983 -0.317203E-08  0.124E-04    1.01      67.0  T
   4   -225.2909983 -0.822610E-09  0.708E-05    1.01     117.7  T
     SCC iter.                  ...        0 min,  0.259 sec
     gradient                   ...        0 min,  0.385 sec
 * total energy  :  -221.5456879 Eh     change       -0.2181697E-04 Eh
   gradient norm :     0.0007573 Eh/α   predicted    -0.9183346E-05 ( -57.91%)
   displ. norm   :     0.2356909 α      lambda       -0.1536264E-04
   maximum displ.:     0.1487188 α      in ANC's #10, #9, #6, ...

........................................................................
.............................. CYCLE   57 ..............................
........................................................................
   1   -225.2911910 -0.225291E+03  0.392E-04    1.01       0.0  T
   2   -225.2911910 -0.131964E-07  0.191E-04    1.01      43.7  T
   3   -225.2911910 -0.274218E-08  0.124E-04    1.01      67.4  T
     SCC iter.                  ...        0 min,  0.206 sec
     gradient                   ...        0 min,  0.386 sec
 * total energy  :  -221.5457073 Eh     change       -0.1947370E-04 Eh
   gradient norm :     0.0008676 Eh/α   predicted    -0.7871812E-05 ( -59.58%)
   displ. norm   :     0.2583940 α      lambda       -0.1694599E-04
   maximum displ.:     0.1631098 α      in ANC's #10, #9, #6, ...

........................................................................
.............................. CYCLE   58 ..............................
........................................................................
   1   -225.2912873 -0.225291E+03  0.408E-04    1.01       0.0  T
   2   -225.2912873 -0.147661E-07  0.195E-04    1.01      42.7  T
   3   -225.2912873 -0.142853E-08  0.121E-04    1.01      69.1  T
     SCC iter.                  ...        0 min,  0.223 sec
     gradient                   ...        0 min,  0.379 sec
 * total energy  :  -221.5457295 Eh     change       -0.2219955E-04 Eh
   gradient norm :     0.0007753 Eh/α   predicted    -0.8727360E-05 ( -60.69%)
   displ. norm   :     0.3290264 α      lambda       -0.2153124E-04
   maximum displ.:     0.2076217 α      in ANC's #10, #9, #6, ...

........................................................................
.............................. CYCLE   59 ..............................
........................................................................
   1   -225.2912607 -0.225291E+03  0.487E-04    1.01       0.0  T
   2   -225.2912607 -0.179949E-07  0.225E-04    1.01      37.0  T
   3   -225.2912607 -0.123444E-08  0.147E-04    1.01      56.6  T
   4   -225.2912607 -0.229875E-09  0.935E-05    1.01      89.2  T
     SCC iter.                  ...        0 min,  0.285 sec
     gradient                   ...        0 min,  0.335 sec
 * total energy  :  -221.5457565 Eh     change       -0.2695492E-04 Eh
   gradient norm :     0.0007386 Eh/α   predicted    -0.1128754E-04 ( -58.12%)
   displ. norm   :     0.3635248 α      lambda       -0.2017184E-04
   maximum displ.:     0.2303449 α      in ANC's #10, #9, #6, ...

........................................................................
.............................. CYCLE   60 ..............................
........................................................................
   1   -225.2909570 -0.225291E+03  0.466E-04    1.01       0.0  T
   2   -225.2909570 -0.172348E-07  0.243E-04    1.01      34.3  T
   3   -225.2909570 -0.450356E-08  0.136E-04    1.01      61.4  T
   4   -225.2909570 -0.109625E-08  0.724E-05    1.01     115.2  T
     SCC iter.                  ...        0 min,  0.272 sec
     gradient                   ...        0 min,  0.395 sec
 * total energy  :  -221.5457795 Eh     change       -0.2300353E-04 Eh
   gradient norm :     0.0007443 Eh/α   predicted    -0.1068068E-04 ( -53.57%)
   displ. norm   :     0.2801946 α      lambda       -0.1157274E-04
   maximum displ.:     0.1795176 α      in ANC's #10, #9, #6, ...

........................................................................
.............................. CYCLE   61 ..............................
........................................................................
   1   -225.2908390 -0.225291E+03  0.359E-04    1.00       0.0  T
   2   -225.2908390 -0.105985E-07  0.217E-04    1.00      38.5  T
   3   -225.2908390 -0.797803E-08  0.120E-04    1.00      69.5  T
   4   -225.2908390 -0.182376E-08  0.729E-05    1.00     114.3  T
     SCC iter.                  ...        0 min,  0.249 sec
     gradient                   ...        0 min,  0.391 sec
 * total energy  :  -221.5457921 Eh     change       -0.1257745E-04 Eh
   gradient norm :     0.0007707 Eh/α   predicted    -0.5990758E-05 ( -52.37%)
   displ. norm   :     0.1745852 α      lambda       -0.6310924E-05
   maximum displ.:     0.1134449 α      in ANC's #10, #9, #6, ...

........................................................................
.............................. CYCLE   62 ..............................
........................................................................
   1   -225.2910554 -0.225291E+03  0.236E-04    1.00       0.0  T
   2   -225.2910554 -0.400811E-08  0.168E-04    1.00      49.7  T
   3   -225.2910554 -0.490911E-08  0.884E-05    1.00      94.3  T
     SCC iter.                  ...        0 min,  0.192 sec
     gradient                   ...        0 min,  0.391 sec
 * total energy  :  -221.5457993 Eh     change       -0.7221433E-05 Eh
   gradient norm :     0.0004960 Eh/α   predicted    -0.3203164E-05 ( -55.64%)
   displ. norm   :     0.1395391 α      lambda       -0.5166391E-05
   maximum displ.:     0.0914748 α      in ANC's #10, #9, #6, ...

........................................................................
.............................. CYCLE   63 ..............................
........................................................................
   1   -225.2909764 -0.225291E+03  0.235E-04    1.00       0.0  T
   2   -225.2909764 -0.449589E-08  0.137E-04    1.00      61.0  T
   3   -225.2909764 -0.212793E-08  0.767E-05    1.00     108.7  T
     SCC iter.                  ...        0 min,  0.203 sec
     gradient                   ...        0 min,  0.394 sec
 * total energy  :  -221.5458056 Eh     change       -0.6290140E-05 Eh
   gradient norm :     0.0002851 Eh/α   predicted    -0.2608836E-05 ( -58.52%)
   displ. norm   :     0.1361547 α      lambda       -0.5259411E-05
   maximum displ.:     0.0887553 α      in ANC's #10, #6, #9, ...

........................................................................
.............................. CYCLE   64 ..............................
........................................................................
   1   -225.2908056 -0.225291E+03  0.232E-04    1.00       0.0  T
   2   -225.2908056 -0.356246E-08  0.118E-04    1.00      70.9  T
   3   -225.2908056 -0.535863E-09  0.769E-05    1.00     108.4  T
     SCC iter.                  ...        0 min,  0.222 sec
     gradient                   ...        0 min,  0.393 sec
 * total energy  :  -221.5458119 Eh     change       -0.6288481E-05 Eh
   gradient norm :     0.0003068 Eh/α   predicted    -0.2652194E-05 ( -57.82%)
   displ. norm   :     0.1297567 α      lambda       -0.4464524E-05
   maximum displ.:     0.0835935 α      in ANC's #10, #6, #9, ...

........................................................................
.............................. CYCLE   65 ..............................
........................................................................
   1   -225.2907451 -0.225291E+03  0.223E-04    1.00       0.0  T
   2   -225.2907451 -0.269188E-08  0.108E-04    1.00      77.0  T
   3   -225.2907451 -0.655405E-10  0.776E-05    1.00     107.5  T
     SCC iter.                  ...        0 min,  0.218 sec
     gradient                   ...        0 min,  0.397 sec
 * total energy  :  -221.5458169 Eh     change       -0.5014605E-05 Eh
   gradient norm :     0.0003850 Eh/α   predicted    -0.2249688E-05 ( -55.14%)
   displ. norm   :     0.0984942 α      lambda       -0.2730024E-05
   maximum displ.:     0.0634165 α      in ANC's #10, #6, #9, ...

........................................................................
.............................. CYCLE   66 ..............................
........................................................................
   1   -225.2908033 -0.225291E+03  0.194E-04    1.00       0.0  T
   2   -225.2908033 -0.202786E-08  0.109E-04    1.00      76.7  T
   3   -225.2908033 -0.140193E-08  0.711E-05    1.00     117.2  T
     SCC iter.                  ...        0 min,  0.217 sec
     gradient                   ...        0 min,  0.394 sec
 * total energy  :  -221.5458199 Eh     change       -0.3060831E-05 Eh
   gradient norm :     0.0003764 Eh/α   predicted    -0.1373746E-05 ( -55.12%)
   displ. norm   :     0.0676354 α      lambda       -0.1873238E-05
   maximum displ.:     0.0434367 α      in ANC's #10, #6, #9, ...

   *** GEOMETRY OPTIMIZATION CONVERGED AFTER 66 ITERATIONS ***

------------------------------------------------------------------------
 total energy gain   :        -0.4986188 Eh     -312.8880 kcal/mol
 total RMSD          :         1.0176904 a0        0.5385 Å
 total power (kW/mol):       -19.8352046 (step)  -22.4107 (real)
------------------------------------------------------------------------

 ANCopt (total)                0 d,  0 h,  0 min, 58.415 sec
 optimizer setup                ...        0 min,  0.001 sec (  0.001%)
 model hessian                  ...        0 min,  0.205 sec (  0.351%)
 ANC generation                 ...        0 min,  0.110 sec (  0.188%)
 coordinate transformation      ...        0 min,  0.014 sec (  0.023%)
 single point calculation       ...        0 min, 57.966 sec ( 99.231%)
 optimization log               ...        0 min,  0.067 sec (  0.115%)
 hessian update                 ...        0 min,  0.010 sec (  0.018%)
[...]
                            40 C    0.103
    36   6 C    3.996 --    35 C    1.020    63 H    0.985    62 H    0.980
                            64 H    0.971
    37   6 C    3.988 --    35 C    1.419    38 C    1.412    65 H    0.972
                            33 C    0.102
    38   6 C    3.988 --    40 C    1.420    37 C    1.412    39 C    1.020
                            34 C    0.104
    39   6 C    3.996 --    38 C    1.020    68 H    0.984    66 H    0.982
                            67 H    0.971
    40   6 C    3.986 --    38 C    1.420    33 C    1.394    69 H    0.972
                            35 C    0.103
    41   1 H    1.002 --     1 C    0.971
    42   1 H    0.998 --     3 C    0.977
    43   1 H    1.005 --     4 C    0.974
    44   1 H    0.986 --     6 N    0.873
    45   1 H    1.005 --     9 C    0.974
    46   1 H    1.003 --    10 C    0.974
    47   1 H    1.002 --    15 C    0.975
    48   1 H    1.005 --    16 C    0.974
    49   1 H    1.003 --    20 C    0.972
    50   1 H    1.006 --    22 C    0.971
    51   1 H    1.004 --    22 C    0.982
    52   1 H    1.004 --    22 C    0.983
    53   1 H    1.000 --    23 C    0.972
    54   1 H    1.004 --    25 C    0.983
    55   1 H    1.004 --    25 C    0.982
    56   1 H    1.006 --    25 C    0.971
    57   1 H    1.003 --    26 C    0.972
    58   1 H    1.006 --    28 C    0.974
    59   1 H    0.999 --    29 C    0.976
    60   1 H    0.987 --    32 N    0.873
    61   1 H    1.003 --    34 C    0.972
    62   1 H    1.005 --    36 C    0.980
    63   1 H    1.004 --    36 C    0.985
    64   1 H    1.006 --    36 C    0.971
    65   1 H    1.000 --    37 C    0.972
    66   1 H    1.004 --    39 C    0.982
    67   1 H    1.006 --    39 C    0.971
    68   1 H    1.004 --    39 C    0.984
    69   1 H    1.003 --    40 C    0.972
    70   6 C    3.924 --    99 C    1.365    71 C    1.346   110 H    0.971
    71   6 C    3.903 --    70 C    1.346    72 C    1.230    75 N    1.170
    72   6 C    3.953 --    73 C    1.595    71 C    1.230   111 H    0.977
    73   6 C    3.959 --    72 C    1.595    74 C    1.235   112 H    0.974
    74   6 C    3.896 --    76 C    1.303    73 C    1.235    75 N    1.176
    75   7 N    3.469 --    74 C    1.176    71 C    1.170   113 H    0.873
    76   6 C    3.939 --    77 C    1.338    74 C    1.303   102 C    1.025
    77   6 C    3.915 --    76 C    1.338    80 N    1.284    78 C    1.125
    78   6 C    3.966 --    79 C    1.710    77 C    1.125   114 H    0.974
    79   6 C    3.964 --    78 C    1.710    81 C    1.128   115 H    0.974
    80   7 N    3.022 --    81 C    1.346    77 C    1.284
    81   6 C    3.909 --    80 N    1.346    82 C    1.252    79 C    1.128
    82   6 C    3.936 --    81 C    1.252    83 C    1.250   144 C    1.193
    83   6 C    3.885 --    82 C    1.250    84 C    1.249   101 N    1.190
    84   6 C    3.959 --    85 C    1.583    83 C    1.249   116 H    0.975
    85   6 C    3.955 --    84 C    1.583    86 C    1.241   117 H    0.974
    86   6 C    3.898 --    87 C    1.310    85 C    1.241   101 N    1.164
    87   6 C    3.925 --    96 C    1.322    86 C    1.310    88 C    1.027
    88   6 C    3.988 --    95 C    1.396    89 C    1.396    87 C    1.027
                            92 C    0.103
    89   6 C    3.986 --    90 C    1.418    88 C    1.396   118 H    0.972
                            93 C    0.103
    90   6 C    3.988 --    89 C    1.418    92 C    1.414    91 C    1.020
                            95 C    0.103
    91   6 C    3.996 --    90 C    1.020   121 H    0.983   120 H    0.982
                           119 H    0.971
    92   6 C    3.988 --    93 C    1.416    90 C    1.414   122 H    0.972
                            88 C    0.103
    93   6 C    3.988 --    95 C    1.417    92 C    1.416    94 C    1.020
                            89 C    0.103
    94   6 C    3.995 --    93 C    1.020   123 H    0.983   124 H    0.982
                           125 H    0.971
    95   6 C    3.985 --    93 C    1.417    88 C    1.396   126 H    0.972
                            90 C    0.103
    96   6 C    3.929 --    87 C    1.322   100 N    1.316    97 C    1.118
    97   6 C    3.967 --    98 C    1.722    96 C    1.118   127 H    0.974
    98   6 C    3.966 --    97 C    1.722    99 C    1.117   128 H    0.976
    99   6 C    3.930 --    70 C    1.365   100 N    1.301    98 C    1.117
   100   7 N    3.012 --    96 C    1.316    99 C    1.301
   101   7 N    3.474 --    83 C    1.190    86 C    1.164   129 H    0.873
   102   6 C    3.988 --   103 C    1.400   109 C    1.394    76 C    1.025
                           106 C    0.102
   103   6 C    3.987 --   104 C    1.413   102 C    1.400   130 H    0.972
                           107 C    0.104
   104   6 C    3.988 --   106 C    1.419   103 C    1.413   105 C    1.020
                           109 C    0.103
   105   6 C    3.996 --   104 C    1.020   132 H    0.985   131 H    0.980
                           133 H    0.971
   106   6 C    3.988 --   104 C    1.419   107 C    1.412   134 H    0.972
                           102 C    0.102
   107   6 C    3.988 --   109 C    1.420   106 C    1.412   108 C    1.020
                           103 C    0.104
   108   6 C    3.996 --   107 C    1.020   137 H    0.984   135 H    0.982
                           136 H    0.971
   109   6 C    3.986 --   107 C    1.420   102 C    1.394   138 H    0.972
                           104 C    0.103
   110   1 H    1.002 --    70 C    0.971
   111   1 H    0.998 --    72 C    0.977
   112   1 H    1.005 --    73 C    0.974
   113   1 H    0.986 --    75 N    0.873
   114   1 H    1.005 --    78 C    0.974
   115   1 H    1.003 --    79 C    0.974
   116   1 H    1.002 --    84 C    0.975
   117   1 H    1.005 --    85 C    0.974
   118   1 H    1.003 --    89 C    0.972
   119   1 H    1.006 --    91 C    0.971
   120   1 H    1.004 --    91 C    0.982
   121   1 H    1.004 --    91 C    0.983
   122   1 H    1.000 --    92 C    0.972
   123   1 H    1.004 --    94 C    0.983
   124   1 H    1.004 --    94 C    0.982
   125   1 H    1.006 --    94 C    0.971
   126   1 H    1.003 --    95 C    0.972
   127   1 H    1.005 --    97 C    0.974
   128   1 H    0.999 --    98 C    0.976
   129   1 H    0.987 --   101 N    0.873
   130   1 H    1.003 --   103 C    0.972
   131   1 H    1.005 --   105 C    0.980
   132   1 H    1.004 --   105 C    0.985
   133   1 H    1.006 --   105 C    0.971
   134   1 H    1.000 --   106 C    0.972
   135   1 H    1.004 --   108 C    0.982
   136   1 H    1.006 --   108 C    0.971
   137   1 H    1.004 --   108 C    0.984
   138   1 H    1.003 --   109 C    0.972
   139   6 C    3.925 --   140 C    2.366   143 C    1.337   142 C    0.190
   140   6 C    3.925 --   139 C    2.366   141 C    1.337   144 C    0.190
   141   6 C    3.932 --   142 C    2.446   140 C    1.337
   142   6 C    3.890 --   141 C    2.446    13 C    1.193   139 C    0.190
   143   6 C    3.932 --   144 C    2.446   139 C    1.337
   144   6 C    3.890 --   143 C    2.446    82 C    1.193   140 C    0.190
 ---------------------------------------------------------------------------

Topologies differ in total number of bonds
Writing topology from bond orders to xtbtopo.mol

 dipole moment from electron density (au)
     X       Y       Z   
   0.0008   0.0441  -0.1613  total (Debye):    0.425

           -------------------------------------------------
          |                Geometry Summary                 |
           -------------------------------------------------

      molecular mass/u    :     1107.3515894
   center of mass at/Å    :       21.6881160      -0.0006617       0.0014425
  moments of inertia/u·Å² :        0.2455642E+05   0.7148159E+05   0.9430826E+05
rotational constants/cm⁻¹ :        0.6864859E-03   0.2358318E-03   0.1787503E-03

 * 139 selected distances

     #   Z          #   Z                                           value/Å
     1   6 C        2   6 C                                       1.3890327
     2   6 C        3   6 C                                       1.4232729
     3   6 C        4   6 C                                       1.3666299
     4   6 C        5   6 C                                       1.4240129
     2   6 C        6   7 N                                       1.3663253
     5   6 C        6   7 N                                       1.3663262
     5   6 C        7   6 C                                       1.3992236
     7   6 C        8   6 C                                       1.3964907
     8   6 C        9   6 C                                       1.4518773
     9   6 C       10   6 C                                       1.3491845
     8   6 C       11   7 N                                       1.3619025
    10   6 C       12   6 C                                       1.4500986
    11   7 N       12   6 C                                       1.3479065
    12   6 C       13   6 C                                       1.4099588
    13   6 C       14   6 C                                       1.4081432
    14   6 C       15   6 C                                       1.4199127
    15   6 C       16   6 C                                       1.3674761
    16   6 C       17   6 C                                       1.4223620
    17   6 C       18   6 C                                       1.3988275
    19   6 C       20   6 C                                       1.3944840
    20   6 C       21   6 C                                       1.3905391
    21   6 C       23   6 C                                       1.3918627
    23   6 C       24   6 C                                       1.3915762
    19   6 C       26   6 C                                       1.3944914
    24   6 C       26   6 C                                       1.3907183
    18   6 C       27   6 C                                       1.3986742
    28   6 C       29   6 C                                       1.3483663
     1   6 C       30   6 C                                       1.3889322
    29   6 C       30   6 C                                       1.4523790
    27   6 C       31   7 N                                       1.3543797
    30   6 C       31   7 N                                       1.3554735
    14   6 C       32   7 N                                       1.3626209
    17   6 C       32   7 N                                       1.3702300
    33   6 C       34   6 C                                       1.3936330
    34   6 C       35   6 C                                       1.3914557
    35   6 C       37   6 C                                       1.3908792
    37   6 C       38   6 C                                       1.3923460
    33   6 C       40   6 C                                       1.3947514
    38   6 C       40   6 C                                       1.3902959
     1   6 C       41   1 H                                       1.0854364
     3   6 C       42   1 H                                       1.0784140
     4   6 C       43   1 H                                       1.0779905
     6   7 N       44   1 H                                       1.0145072
     9   6 C       45   1 H                                       1.0779887
    10   6 C       46   1 H                                       1.0783197
    15   6 C       47   1 H                                       1.0780762
    16   6 C       48   1 H                                       1.0777501
    20   6 C       49   1 H                                       1.0844747
    22   6 C       50   1 H                                       1.0924351
    22   6 C       51   1 H                                       1.0903484
    22   6 C       52   1 H                                       1.0900553
    23   6 C       53   1 H                                       1.0852012
    25   6 C       54   1 H                                       1.0901517
    25   6 C       55   1 H                                       1.0902693
    25   6 C       56   1 H                                       1.0924075
    26   6 C       57   1 H                                       1.0846062
    28   6 C       58   1 H                                       1.0781967
    29   6 C       59   1 H                                       1.0788714
    32   7 N       60   1 H                                       1.0147015
    34   6 C       61   1 H                                       1.0844939
    36   6 C       62   1 H                                       1.0905338
    36   6 C       63   1 H                                       1.0899740
    36   6 C       64   1 H                                       1.0923281
    37   6 C       65   1 H                                       1.0851969
    39   6 C       66   1 H                                       1.0903621
    39   6 C       67   1 H                                       1.0924542
    39   6 C       68   1 H                                       1.0900924
    40   6 C       69   1 H                                       1.0846123
    70   6 C       71   6 C                                       1.3890302
    71   6 C       72   6 C                                       1.4233016
    72   6 C       73   6 C                                       1.3666295
    73   6 C       74   6 C                                       1.4239846
    71   6 C       75   7 N                                       1.3663140
    74   6 C       75   7 N                                       1.3663041
    74   6 C       76   6 C                                       1.3990724
    76   6 C       77   6 C                                       1.3962758
    77   6 C       78   6 C                                       1.4518407
    78   6 C       79   6 C                                       1.3491585
    77   6 C       80   7 N                                       1.3619840
    79   6 C       81   6 C                                       1.4501550
    80   7 N       81   6 C                                       1.3478302
    81   6 C       82   6 C                                       1.4100407
    82   6 C       83   6 C                                       1.4080735
    83   6 C       84   6 C                                       1.4199629
    84   6 C       85   6 C                                       1.3674795
    85   6 C       86   6 C                                       1.4223664
    86   6 C       87   6 C                                       1.3986053
    88   6 C       89   6 C                                       1.3943394
    89   6 C       90   6 C                                       1.3905729
    90   6 C       92   6 C                                       1.3918580
    92   6 C       93   6 C                                       1.3915873
    88   6 C       95   6 C                                       1.3943489
    93   6 C       95   6 C                                       1.3907664
    87   6 C       96   6 C                                       1.3984752
    97   6 C       98   6 C                                       1.3483518
    70   6 C       99   6 C                                       1.3889404
    98   6 C       99   6 C                                       1.4524247 (max)
    96   6 C      100   7 N                                       1.3543883
    99   6 C      100   7 N                                       1.3554680
    83   6 C      101   7 N                                       1.3626278
    86   6 C      101   7 N                                       1.3702215
   102   6 C      103   6 C                                       1.3934884
   103   6 C      104   6 C                                       1.3914927
   104   6 C      106   6 C                                       1.3908666
   106   6 C      107   6 C                                       1.3923511
   102   6 C      109   6 C                                       1.3946324
   107   6 C      109   6 C                                       1.3903267
    70   6 C      110   1 H                                       1.0854226
    72   6 C      111   1 H                                       1.0784136
    73   6 C      112   1 H                                       1.0780074
    75   7 N      113   1 H                                       1.0145022 (min)
    78   6 C      114   1 H                                       1.0779903
    79   6 C      115   1 H                                       1.0783025
    84   6 C      116   1 H                                       1.0780836
    85   6 C      117   1 H                                       1.0777724
    89   6 C      118   1 H                                       1.0844835
    91   6 C      119   1 H                                       1.0924305
    91   6 C      120   1 H                                       1.0903567
    91   6 C      121   1 H                                       1.0900619
    92   6 C      122   1 H                                       1.0852016
    94   6 C      123   1 H                                       1.0901501
    94   6 C      124   1 H                                       1.0902688
    94   6 C      125   1 H                                       1.0924304
    95   6 C      126   1 H                                       1.0846126
    97   6 C      127   1 H                                       1.0782114
    98   6 C      128   1 H                                       1.0788693
   101   7 N      129   1 H                                       1.0146919
   103   6 C      130   1 H                                       1.0845018
   105   6 C      131   1 H                                       1.0905424
   105   6 C      132   1 H                                       1.0899737
   105   6 C      133   1 H                                       1.0923215
   106   6 C      134   1 H                                       1.0851993
   108   6 C      135   1 H                                       1.0903619
   108   6 C      136   1 H                                       1.0924701
   108   6 C      137   1 H                                       1.0900926
   109   6 C      138   1 H                                       1.0846166
   139   6 C      140   6 C                                       1.2284848
   141   6 C      142   6 C                                       1.2241618
   143   6 C      144   6 C                                       1.2241605

 * 4 distinct bonds (by element types)

   Z      Z             #   av. dist./Å        max./Å        min./Å
   1 H    6 C          54     1.0855961     1.0924701     1.0777501
   6 C    6 C          65     1.3910691     1.4524247     1.2241605
   1 H    7 N           4     1.0146007     1.0147015     1.0145022
   6 C    7 N          16     1.3606439     1.3702300     1.3478302


optimized geometry written to: xtbopt.xyz


           -------------------------------------------------
          | TOTAL ENERGY             -221.545819936199 Eh   |
          | GRADIENT NORM               0.000376651457 Eh/α |
          | HOMO-LUMO GAP               1.004778209556 eV   |
           -------------------------------------------------

------------------------------------------------------------------------
 * finished run on 2022/07/27 at 21:43:15.200     
------------------------------------------------------------------------
 total:
 * wall-time:     0 d,  0 h,  1 min,  1.982 sec
 *  cpu-time:     0 d,  0 h,  1 min,  0.406 sec
 * ratio c/w:     0.975 speedup
 SCF:
 * wall-time:     0 d,  0 h,  0 min,  1.505 sec
 *  cpu-time:     0 d,  0 h,  0 min,  1.496 sec
 * ratio c/w:     0.994 speedup
 ANC optimizer:
 * wall-time:     0 d,  0 h,  0 min, 59.138 sec
 *  cpu-time:     0 d,  0 h,  0 min, 58.753 sec
 * ratio c/w:     0.993 speedup

