256
 energy: -464.721257814525 gnorm: 0.844343423090 xtb: 6.5.1 (b24c23e)
Fe          43.23341299999999       -0.02583100000000        0.00356800000000
C           39.87166000000000        0.10927600000000       -0.11545600000000
C           40.53772000000000        1.26296800000000       -0.01502400000000
C           39.88789400000000        2.56456700000000        0.07890800000000
C           40.82799799999999        3.47878600000000        0.22413100000000
C           42.13333400000000        2.80372000000000        0.22509200000000
N           41.95596200000000        1.39515300000000        0.07025800000000
C           43.32274800000000        3.41605700000000        0.39814500000000
C           43.35907900000000        4.88299800000000        0.59068300000000
C           43.61394100000000        5.42071300000000        1.86033100000000
C           43.65268499999999        6.80590700000000        2.04347700000000
C           43.43234000000000        7.67139500000000        0.95783400000000
C           43.46566500000000        9.13492000000000        1.13169500000000
O           43.70001400000000        9.65122200000000        2.25694600000000
C           43.17625400000000        7.12949000000000       -0.31136600000000
C           43.14223799999999        5.74424900000000       -0.49489900000000
C           44.61848999999999        2.68514000000000        0.41483100000000
C           45.91327300000000        3.32697900000000        0.67353300000000
C           46.84742800000000        2.40367700000000        0.58069700000000
N           44.75718600000000        1.41873100000000        0.16368200000000
C           46.15912400000000        1.16162100000000        0.25197300000000
C           46.75523600000000       -0.01707500000000        0.00465000000000
C           46.00034900000000       -1.24052800000000       -0.35379400000000
C           46.55396999999999       -2.32897100000000       -0.87379100000000
C           45.51000300000000       -3.32392000000000       -1.00751200000000
C           44.38529900000000       -2.78025000000000       -0.55853400000000
N           44.60381900000000       -1.43579900000000       -0.12437000000000
C           43.08859799999999       -3.50043500000000       -0.47226000000000
C           43.09808600000000       -4.98046300000000       -0.54776000000000
C           42.53575500000000       -5.63966200000000       -1.65222600000000
C           42.56525299999999       -7.03492700000000       -1.72932200000000
C           43.16212000000000       -7.78952600000000       -0.70701400000000
C           43.18984500000000       -9.26010700000000       -0.80837500000000
O           43.76588800000000       -9.96147000000000        0.06416400000000
C           43.72982000000000       -7.12700500000000        0.39595400000000
C           43.70043600000000       -5.73163400000000        0.47200500000000
C           41.92035599999999       -2.84708400000000       -0.32858200000000
C           40.59865400000000       -3.46074100000000       -0.21141400000000
C           39.73820799999999       -2.46514600000000       -0.12595500000000
C           40.50112299999999       -1.21914400000000       -0.17590400000000
N           41.77458500000000       -1.42891400000000       -0.29406000000000
H           38.78839000000000        0.14209000000000       -0.13229500000000
H           38.82405500000000        2.76233400000000        0.05163500000000
H           40.63948199999999        4.53872900000000        0.33441100000000
H           43.78337900000000        4.76604100000000        2.70657000000000
H           43.85330200000000        7.19849600000000        3.03245400000000
H           43.28817500000000        9.78481300000000        0.28444300000000
H           43.00333100000000        7.77882600000000       -1.16100700000000
H           42.94521400000000        5.34141500000000       -1.48110600000000
H           46.09582400000000        4.37034400000000        0.89255100000000
H           47.90839000000000        2.57107300000000        0.71068500000000
H           47.59408300000000       -2.46587200000000       -1.13697700000000
H           45.63396300000000       -4.32901600000000       -1.38873200000000
H           42.07938100000000       -5.07176700000000       -2.45456900000000
H           42.12738400000000       -7.52551700000000       -2.59090400000000
H           42.71830300000000       -9.75297600000000       -1.64859000000000
H           44.19606600000000       -7.68608000000000        1.19829700000000
H           44.14358400000000       -5.23586700000000        1.32742100000000
H           40.34754299999999       -4.51326900000000       -0.19240800000000
H           38.66519900000000       -2.56721900000000       -0.02781900000000
Fe          93.20724800000001       -0.00825300000000        0.00482600000000
C           96.56900100000000       -0.12503300000000       -0.13222500000000
C           95.90294100000000       -1.28127000000000       -0.19711000000000
C           96.55276699999999       -2.58298000000000       -0.28949300000000
C           95.61266300000000       -3.50856200000000       -0.27594100000000
C           94.30732700000000       -2.84051200000000       -0.17885600000000
N           94.48469900000001       -1.42425200000000       -0.13152200000000
C           93.11791400000000       -3.47125300000000       -0.09476800000000
C           93.08158200000000       -4.95066200000000       -0.11309500000000
C           92.82671999999999       -5.66370400000000        1.06703900000000
C           92.78797599999999       -7.06086100000000        1.05105700000000
C           93.00832100000000       -7.76292500000000       -0.14677300000000
C           92.97499600000000       -9.23629300000000       -0.18310000000000
O           92.74064700000000       -9.90757600000000        0.85715800000000
C           93.26440700000001       -7.04580000000000       -1.32586600000000
C           93.29842300000000       -5.64854100000000       -1.31026100000000
C           91.82217100000000       -2.75016100000000        0.02583600000000
C           90.52738799999999       -3.42230000000000        0.19049900000000
C           89.59323400000000       -2.49518800000000        0.23009400000000
N           91.68347500000000       -1.46089400000000       -0.04240700000000
C           90.28153700000000       -1.21897800000000        0.08159800000000
C           89.68542500000000       -0.01707500000000        0.00465000000000
C           90.44031200000001        1.24495500000000       -0.17591300000000
C           89.88669100000000        2.39635500000000       -0.53560800000000
C           90.93065799999999        3.40020700000000       -0.52627800000000
C           92.05536199999999        2.79814100000000       -0.15929900000000
N           91.83684200000000        1.40556300000000        0.07898100000000
C           93.35206400000000        3.49869900000000        0.02865600000000
C           93.34257500000000        4.97439400000000        0.16469100000000
C           93.90490600000000        5.78415900000000       -0.83464300000000
C           93.87540899999999        7.17618200000000       -0.71225800000000
C           93.27854100000000        7.77750700000000        0.40709100000000
C           93.25081600000000        9.24753500000000        0.51618400000000
O           92.67477300000000        9.81749400000000        1.47970900000000
C           92.71084099999999        6.96466800000000        1.40447000000000
C           92.74022500000000        5.57268800000000        1.28103500000000
C           94.52030600000001        2.83154600000000        0.07782800000000
C           95.84200700000000        3.42226300000000        0.28119000000000
C           96.70245399999999        2.42464600000000        0.22399900000000
C           95.93953799999998        1.19845600000000       -0.00288100000000
N           94.66607600000000        1.42291300000000       -0.08996000000000
H           97.65227199999998       -0.15511600000000       -0.15356500000000
H           97.61660599999999       -2.77484700000000       -0.34465100000000
H           95.80117899999999       -4.57340600000000       -0.31772800000000
H           92.65728200000000       -5.13621400000000        1.99788400000000
H           92.58735999999999       -7.59028600000000        1.97404700000000
H           93.15248600000000       -9.75890800000000       -1.11426600000000
H           93.43732999999999       -7.56752400000000       -2.25931800000000
H           93.49544700000000       -5.10937000000000       -2.22905000000000
H           90.34483700000000       -4.48622100000000        0.25870200000000
H           88.53227199999999       -2.67938900000000        0.33491900000000
H           88.84657799999999        2.56934100000000       -0.77661600000000
H           90.80669800000000        4.44934800000000       -0.76048000000000
H           94.36127999999999        5.33631100000000       -1.70968200000000
H           94.31327700000000        7.78446800000000       -1.49519500000000
H           93.72235799999999        9.85503300000000       -0.24528000000000
H           92.24459500000000        7.40378600000000        2.27825100000000
H           92.29707700000000        4.96015600000000        2.05713200000000
H           96.09311800000000        4.46135700000000        0.44989000000000
H           97.77546199999999        2.51170200000000        0.33567000000000
C           52.96618600000000       -0.01597200000000        0.01314000000000
C           51.75724699999999       -0.02942700000000        0.00469300000000
C           50.33571800000000       -0.02060800000000       -0.00729000000000
C           49.12404799999999       -0.01316900000000        0.00357300000000
C           54.38278999999999       -0.02264700000000        0.01367300000000
C           55.60348600000000       -0.01316900000000        0.00357300000000
C           68.82417400000000       -0.01597200000000        0.01314000000000
C           67.61523500000000       -0.02942700000000        0.00469300000000
C           66.19370600000001       -0.02060800000000       -0.00729000000000
C           64.98203700000001       -0.01316900000000        0.00357300000000
C           70.24077900000000       -0.02264700000000        0.01367300000000
C           71.46147499999998       -0.01316900000000        0.00357300000000
C           84.68216300000000       -0.01597200000000        0.01314000000000
C           83.47322400000000       -0.02942700000000        0.00469300000000
C           82.05169500000000       -0.02060800000000       -0.00729000000000
C           80.84002500000000       -0.01316900000000        0.00357300000000
C           86.09876700000000       -0.02264700000000        0.01367300000000
C           87.31946300000000       -0.01316900000000        0.00357300000000
Fe          60.27554299999999       -0.02432900000000        0.01623500000000
C           56.83330999999999        0.01937300000000       -0.00527400000000
C           57.48956100000000        1.15440100000000        0.30414200000000
C           56.84861099999999        2.44534300000000        0.56672800000000
C           57.78881699999999        3.32051000000000        0.86910300000000
C           59.08679100000000        2.64095400000000        0.82367800000000
N           58.90691700000000        1.26956800000000        0.45868200000000
C           60.27181100000000        3.22219800000000        1.10557400000000
C           60.30639000000000        4.63974400000000        1.52838100000000
C           60.80770400000000        5.62004800000000        0.65931400000000
C           60.85194799999999        6.95820100000000        1.05870500000000
C           60.39683300000000        7.33245500000000        2.33539400000000
C           60.42098200000000        8.73789200000000        2.77686800000000
O           60.88605099999999        9.63920200000000        2.03320200000000
C           59.90463600000000        6.34851300000000        3.20338800000000
C           59.86102600000000        5.01036900000000        2.80264400000000
C           61.56796899999999        2.50670100000000        1.01515000000000
C           62.83600600000000        3.04945900000000        1.51751200000000
C           63.78792500000000        2.18804700000000        1.22256900000000
N           61.73560000000000        1.35730300000000        0.43809600000000
C           63.13358300000000        1.08531300000000        0.53025200000000
C           63.74923200000000        0.01937300000000       -0.00527400000000
C           63.00063800000000       -1.06452300000000       -0.67397600000000
C           63.53368699999999       -1.93620300000000       -1.51961100000000
C           62.50201500000000       -2.90139900000000       -1.84870900000000
C           61.40998000000000       -2.55189100000000       -1.18109600000000
N           61.63507400000000       -1.37442300000000       -0.40816700000000
C           60.15482800000000       -3.33877200000000       -1.15581600000000
C           60.21642299999999       -4.77584800000000       -1.51133800000000
C           60.98353000000000       -5.65681900000000       -0.73469300000000
C           61.05582400000000       -7.01175000000000       -1.06974000000000
C           60.36731200000000       -7.50321800000000       -2.19007800000000
C           60.45136900000000       -8.93635500000000       -2.52089900000000
O           59.83136100000000       -9.41440700000000       -3.50971500000000
C           59.60852299999999       -6.61775300000000       -2.97604000000000
C           59.53645200000000       -5.26222200000000       -2.64002600000000
C           58.98163800000000       -2.78251900000000       -0.79671900000000
C           57.70471300000000       -3.47833300000000       -0.67416700000000
C           56.81369399999999       -2.55864800000000       -0.36017200000000
C           57.51118500000000       -1.27037300000000       -0.27392500000000
N           58.77871000000000       -1.39548900000000       -0.52486000000000
H           55.79186000000000        2.67682200000000        0.52381700000000
H           57.60460700000000        4.36115500000000        1.10350900000000
H           61.16133199999999        5.34640500000000       -0.32728100000000
H           61.23947300000000        7.69895300000000        0.37010500000000
H           60.02761900000000        9.01032500000000        3.75630200000000
H           59.55355700000000        6.61528900000000        4.19117600000000
H           59.48135200000000        4.26256700000000        3.48429100000000
H           62.98557900000000        3.98691900000000        2.03687000000000
H           64.83777400000000        2.30558500000000        1.45867200000000
H           64.55408900000000       -1.95046600000000       -1.87637500000000
H           62.61633399999999       -3.76683800000000       -2.48758200000000
H           61.52006500000000       -5.29443500000000        0.13414700000000
H           61.64865900000000       -7.67761000000000       -0.45312900000000
H           61.05121399999999       -9.59857000000000       -1.90785900000000
H           59.07563399999999       -6.97133000000000       -3.85031000000000
H           58.95376899999999       -4.59057800000000       -3.25983900000000
H           57.50256300000000       -4.53426700000000       -0.80113100000000
H           55.76123100000000       -2.74823000000000       -0.19291500000000
Fe          76.13353200000000       -0.02432900000000        0.01623500000000
C           72.69129799999999        0.01937300000000       -0.00527400000000
C           73.34755000000000        1.15440100000000        0.30414200000000
C           72.70659999999999        2.44534300000000        0.56672800000000
C           73.64680500000000        3.32051000000000        0.86910300000000
C           74.94477999999999        2.64095400000000        0.82367800000000
N           74.76490500000000        1.26956800000000        0.45868200000000
C           76.12979900000001        3.22219800000000        1.10557400000000
C           76.16437799999999        4.63974400000000        1.52838100000000
C           76.66569200000001        5.62004800000000        0.65931400000000
C           76.70993700000000        6.95820100000000        1.05870500000000
C           76.25482200000000        7.33245500000000        2.33539400000000
C           76.27897000000000        8.73789200000000        2.77686800000000
O           76.74403899999999        9.63920200000000        2.03320200000000
C           75.76262500000000        6.34851300000000        3.20338800000000
C           75.71901400000000        5.01036900000000        2.80264400000000
C           77.42595799999999        2.50670100000000        1.01515000000000
C           78.69399400000000        3.04945900000000        1.51751200000000
C           79.64591400000000        2.18804700000000        1.22256900000000
N           77.59358800000000        1.35730300000000        0.43809600000000
C           78.99157099999999        1.08531300000000        0.53025200000000
C           79.60722000000000        0.01937300000000       -0.00527400000000
C           78.85862700000000       -1.06452300000000       -0.67397600000000
C           79.39167500000001       -1.93620300000000       -1.51961100000000
C           78.36000400000000       -2.90139900000000       -1.84870900000000
C           77.26796899999999       -2.55189100000000       -1.18109600000000
N           77.49306199999999       -1.37442300000000       -0.40816700000000
C           76.01281600000000       -3.33877200000000       -1.15581600000000
C           76.07441099999998       -4.77584800000000       -1.51133800000000
C           76.84151900000001       -5.65681900000000       -0.73469300000000
C           76.91381300000000       -7.01175000000000       -1.06974000000000
C           76.22529999999999       -7.50321800000000       -2.19007800000000
C           76.30935700000001       -8.93635500000000       -2.52089900000000
O           75.68934999999999       -9.41440700000000       -3.50971500000000
C           75.46651099999998       -6.61775300000000       -2.97604000000000
C           75.39444000000000       -5.26222200000000       -2.64002600000000
C           74.83962600000000       -2.78251900000000       -0.79671900000000
C           73.56270200000000       -3.47833300000000       -0.67416700000000
C           72.67168200000000       -2.55864800000000       -0.36017200000000
C           73.36917400000000       -1.27037300000000       -0.27392500000000
N           74.63669899999999       -1.39548900000000       -0.52486000000000
H           71.64984900000000        2.67682200000000        0.52381700000000
H           73.46259499999999        4.36115500000000        1.10350900000000
H           77.01932100000001        5.34640500000000       -0.32728100000000
H           77.09746199999998        7.69895300000000        0.37010500000000
H           75.88560699999999        9.01032500000000        3.75630200000000
H           75.41154600000000        6.61528900000000        4.19117600000000
H           75.33934000000001        4.26256700000000        3.48429100000000
H           78.84356800000000        3.98691900000000        2.03687000000000
H           80.69576300000000        2.30558500000000        1.45867200000000
H           80.41207799999999       -1.95046600000000       -1.87637500000000
H           78.47432300000000       -3.76683800000000       -2.48758200000000
H           77.37805299999999       -5.29443500000000        0.13414700000000
H           77.50664800000000       -7.67761000000000       -0.45312900000000
H           76.90920300000001       -9.59857000000000       -1.90785900000000
H           74.93362299999998       -6.97133000000000       -3.85031000000000
H           74.81175800000000       -4.59057800000000       -3.25983900000000
H           73.36055200000000       -4.53426700000000       -0.80113100000000
H           71.61921999999998       -2.74823000000000       -0.19291500000000
256
 energy: -464.976048675668 gnorm: 0.388986044834 xtb: 6.5.1 (b24c23e)
Fe          43.24138281211002       -0.02032407738774       -0.00313505134368
C           39.87276572159129        0.09259682775536       -0.11604607329382
C           40.54529980186138        1.26137915423015       -0.01436012351371
C           39.88923243075816        2.55618974096019        0.07764796225346
C           40.84002495776601        3.47909806173944        0.22446250682343
C           42.13481039772809        2.79459071719560        0.22342082177131
N           41.94614364521617        1.40220911945528        0.07308032452381
C           43.33885782587323        3.41065110014274        0.39849928976317
C           43.36421471063270        4.88437540334981        0.59068163206066
C           43.61537666881979        5.42568813300715        1.85730612404797
C           43.65175130704047        6.80388497174710        2.03988669080787
C           43.43225909388335        7.67168477206445        0.95762623819985
C           43.46980518323057        9.13445417264006        1.15029358361862
O           43.69680069652509        9.64222150451341        2.24207919249937
C           43.17625707428263        7.12593885604327       -0.30903079993417
C           43.14196392776368        5.74677571670285       -0.49096913892799
C           44.61238980541925        2.69682892012464        0.41687372796769
C           45.90044992207960        3.33652123627662        0.67288573615330
C           46.84707782811596        2.39727534509076        0.57935053147195
N           44.76605375080762        1.40957228931945        0.16788083507174
C           46.17287078116750        1.15480199581450        0.25093047583765
C           46.76759363231146       -0.03036661446713       -0.00214333212090
C           46.00277823170906       -1.22621976759644       -0.34202030160125
C           46.55778487966354       -2.34767438216807       -0.87904390566128
C           45.52916707560996       -3.32482238376107       -1.00858751159228
C           44.37591272494829       -2.76675119982765       -0.54683826285376
N           44.60465003461491       -1.42787283237875       -0.13354084026417
C           43.10231653145809       -3.49039974840293       -0.47119248003555
C           43.10642020332291       -4.97796349376086       -0.55103264939930
C           42.53690615088142       -5.64145978433395       -1.64848424892465
C           42.56612493987285       -7.03110429114968       -1.72603726407475
C           43.16176862536223       -7.78936471016789       -0.70701340250829
C           43.20071720491987       -9.26266927944920       -0.79309293163212
O           43.75784142922363       -9.95017211424703        0.05363733578403
C           43.72757411116135       -7.12369757517866        0.39304047856364
C           43.70054709772206       -5.73478368443192        0.46773245486379
C           41.92141711293897       -2.84246748677606       -0.32778834176026
C           40.60676789655221       -3.45844421716562       -0.21232611136521
C           39.72969544726719       -2.45293862993175       -0.12640909271196
C           40.48563781982425       -1.20927042726394       -0.17503952669464
N           41.77893914107172       -1.43253490411423       -0.28566768966092
H           38.78927000295476        0.13597740325899       -0.13240829331273
H           38.82538376579933        2.75308345732881        0.05029206394715
H           40.65133361678738        4.53858385329462        0.33463515365082
H           43.78291812135566        4.76752360435557        2.70411905751500
H           43.85246520944152        7.20088370959619        3.02967404161678
H           43.28780413533514        9.78060385920189        0.28269853940201
H           43.00379766536057        7.77823509875870       -1.15932415079896
H           42.94601391939952        5.34134445467506       -1.47853985071219
H           46.08622482972111        4.37522671452030        0.89271316463666
H           47.90744379901403        2.56111257984701        0.70882198796869
H           47.59564638563847       -2.47159324901934       -1.13925116493996
H           45.63911922865344       -4.32836693715709       -1.39011422185231
H           42.08081969857280       -5.07191087254113       -2.45215678286847
H           42.12840453388638       -7.52476645380046       -2.58876567712507
H           42.71732675129252       -9.74856837586431       -1.64943292638700
H           44.19432434343856       -7.68749725959902        1.19497977011261
H           44.14250446383308       -5.23663933972511        1.32490708949848
H           40.35816049772613       -4.51151583560163       -0.19345475975573
H           38.66146940437866       -2.55931493931008       -0.02775946968135
Fe          93.19923297006245       -0.01275795175329       -0.00259504499414
C           96.56788954942010       -0.10842732503561       -0.13043373836393
C           95.89535364287789       -1.27980497179396       -0.19623270561321
C           96.55143892330558       -2.57452487690644       -0.28954966413415
C           95.60064980485787       -3.50892550754701       -0.27566058666188
C           94.30586939815052       -2.83119457436688       -0.17921388306971
N           94.49459633368497       -1.43173152410830       -0.12973384245149
C           93.10174035881873       -3.46592170045311       -0.09362538379794
C           93.07642201203684       -4.95201556277028       -0.11329079419729
C           92.82528182484187       -5.66819841133459        1.06333639148449
C           92.78891005009808       -7.05834906605407        1.04779292538048
C           93.00840206226746       -7.76318370964830       -0.14701986964682
C           92.97086382760942       -9.23847549877558       -0.16462381724920
O           92.74384732932479       -9.89655627684793        0.84372142747384
C           93.26440747415801       -7.04261590110554       -1.32304964654682
C           93.29869497130730       -5.65159898470399       -1.30672816800749
C           91.82829149203978       -2.76202562280724        0.02619966277009
C           90.54019839720596       -3.43164755727117        0.18848399625327
C           89.59354931129739       -2.48867339913719        0.22971326722303
N           91.67461427623788       -1.45234763173843       -0.03705501382251
C           90.26773354739568       -1.21206790885628        0.08155041049781
C           89.67364578425814       -0.00270198410450        0.00000259660710
C           90.43792795473291        1.22920493421601       -0.16633686938684
C           89.88287508977494        2.41576868715856       -0.53819935215421
C           90.91139256202956        3.40125825799766       -0.52722152444733
C           92.06472976754219        2.78307262657709       -0.14965539059984
N           91.83600480652834        1.39909232696602        0.06890779029979
C           93.33831689901052        3.48858431822357        0.02827072043938
C           93.33422614295664        4.97237788829697        0.16108698951893
C           93.90375278423797        5.78540122998062       -0.83068367294747
C           93.87453671031942        7.17192952365648       -0.70954769304226
C           93.27889193587630        7.77734265437592        0.40706921410668
C           93.23994139284331        9.24790350090970        0.53167765882501
O           92.68282945571949        9.80780126105899        1.46767448485141
C           92.71308900813447        6.96180915668309        1.40111479136892
C           92.74011396557735        5.57641010994961        1.27725214169535
C           94.51923560735639        2.82683237300468        0.07796043318347
C           95.83388902044315        3.42011092132807        0.27995999947325
C           96.71096282376803        2.41262216089910        0.22180920505167
C           95.95502263596319        1.18853991464233       -0.00343321096851
N           94.66168926844585        1.42528121141794       -0.08112239968414
H           97.65138891372884       -0.14904464327140       -0.15280317422519
H           97.61528396695317       -2.76550576852270       -0.34466236657352
H           95.78932785332771       -4.57330095846248       -0.31748502713624
H           92.65774285330787       -5.13733341203316        1.99524679122821
H           92.58819816061059       -7.59225439193541        1.97095654323925
H           93.15285812220559       -9.75449147196384       -1.11539400558727
H           93.43686421599706       -7.56717860734884       -2.25756865971306
H           93.49464765763683       -5.10966518556606       -2.22649895886141
H           90.35442371158381       -4.49107273822469        0.25816278109122
H           88.53319886178502       -2.66928752777255        0.33450431563280
H           88.84499202206551        2.57536426882286       -0.77804479650649
H           90.80151329973782        4.44890469408061       -0.76193826114362
H           94.35984133537336        5.33610890329304       -1.70727456182092
H           94.31225648633360        7.78341967937747       -1.49318400688885
H           93.72333450106774        9.85079223973891       -0.24674179382905
H           92.24633659096148        7.40566183779111        2.27516853246103
H           92.29815658653051        4.96127817308016        2.05475380298689
H           96.08249677985322        4.45976629284543        0.44860308199708
H           97.77918974148594        2.50387053984112        0.33460207025452
C           52.95704982681146       -0.01641558091687        0.01281048842324
C           51.72953830549601       -0.02886176595683        0.00438965315935
C           50.31806811350813       -0.02071853285587       -0.00641034232358
C           49.08612982402691       -0.01589934936562        0.00303002257799
C           54.33186536227173       -0.02221155306933        0.01394751026520
C           55.54487894680889       -0.01908927193623        0.00035583067032