      -----------------------------------------------------------      
     |                   =====================                   |     
     |                           x T B                           |     
     |                   =====================                   |     
     |                         S. Grimme                         |     
     |          Mulliken Center for Theoretical Chemistry        |     
     |                    University of Bonn                     |     
      -----------------------------------------------------------      

   * xtb version 6.5.1 (b24c23e) compiled by 'conda@728c89f4b128' on 2022-07-12

   xtb is free software: you can redistribute it and/or modify it under
   the terms of the GNU Lesser General Public License as published by
   the Free Software Foundation, either version 3 of the License, or
   (at your option) any later version.
   
   xtb is distributed in the hope that it will be useful,
   but WITHOUT ANY WARRANTY; without even the implied warranty of
   MERCHANTABILITY or FITNESS FOR A PARTICULAR PURPOSE.  See the
   GNU Lesser General Public License for more details.
   
   Cite this work as:
   * C. Bannwarth, E. Caldeweyher, S. Ehlert, A. Hansen, P. Pracht,
     J. Seibert, S. Spicher, S. Grimme, WIREs Comput. Mol. Sci., 2020, 11,
     e01493. DOI: 10.1002/wcms.1493
   
   for GFN2-xTB:
   * C. Bannwarth, S. Ehlert and S. Grimme., J. Chem. Theory Comput., 2019,
     15, 1652-1671. DOI: 10.1021/acs.jctc.8b01176
   for GFN1-xTB:
   * S. Grimme, C. Bannwarth, P. Shushkov, J. Chem. Theory Comput., 2017,
     13, 1989-2009. DOI: 10.1021/acs.jctc.7b00118
   for GFN0-xTB:
   * P. Pracht, E. Caldeweyher, S. Ehlert, S. Grimme, ChemRxiv, 2019, preprint.
     DOI: 10.26434/chemrxiv.8326202.v1
   for GFN-FF:
   * S. Spicher and S. Grimme, Angew. Chem. Int. Ed., 2020, 59, 15665-15673.
     DOI: 10.1002/anie.202004239
   
   for ALPB and GBSA implicit solvation:
   * S. Ehlert, M. Stahn, S. Spicher, S. Grimme, J. Chem. Theory Comput.,
     2021, 17, 4250-4261. DOI: 10.1021/acs.jctc.1c00471
   
   for DFT-D4:
   * E. Caldeweyher, C. Bannwarth and S. Grimme, J. Chem. Phys., 2017,
     147, 034112. DOI: 10.1063/1.4993215
   * E. Caldeweyher, S. Ehlert, A. Hansen, H. Neugebauer, S. Spicher,
     C. Bannwarth and S. Grimme, J. Chem. Phys., 2019, 150, 154122.
     DOI: 10.1063/1.5090222
   * E. Caldeweyher, J.-M. Mewes, S. Ehlert and S. Grimme, Phys. Chem. Chem. Phys.
     2020, 22, 8499-8512. DOI: 10.1039/D0CP00502A
   
   for sTDA-xTB:
   * S. Grimme and C. Bannwarth, J. Chem. Phys., 2016, 145, 054103.
     DOI: 10.1063/1.4959605
   
   in the mass-spec context:
   * V. Asgeirsson, C. Bauer and S. Grimme, Chem. Sci., 2017, 8, 4879.
     DOI: 10.1039/c7sc00601b
   * J. Koopman and S. Grimme, ACS Omega 2019, 4, 12, 15120-15133.
     DOI: 10.1021/acsomega.9b02011
   
   for metadynamics refer to:
   * S. Grimme, J. Chem. Theory Comput., 2019, 155, 2847-2862
     DOI: 10.1021/acs.jctc.9b00143
   
   for SPH calculations refer to:
   * S. Spicher and S. Grimme, J. Chem. Theory Comput., 2021, 17, 1701-1714
     DOI: 10.1021/acs.jctc.0c01306
   
   with help from (in alphabetical order)
   P. Atkinson, C. Bannwarth, F. Bohle, G. Brandenburg, E. Caldeweyher
   M. Checinski, S. Dohm, S. Ehlert, S. Ehrlich, I. Gerasimov, C. Hölzer
   A. Katbashev, J. Koopman, C. Lavigne, S. Lehtola, F. März, M. Müller,
   F. Musil, H. Neugebauer, J. Pisarek, C. Plett, P. Pracht, F. Pultar,
   J. Seibert, P. Shushkov, S. Spicher, M. Stahn, M. Steiner, T. Strunk,
   J. Stückrath, T. Rose, and J. Unsleber
   
 * started run on 2022/07/30 at 06:16:50.709     

           -------------------------------------------------
          |                Calculation Setup                |
           -------------------------------------------------

          program call               : xtb Cu_PhCHO_C4_4.xyz --gfn 1 --opt -T 48
          hostname                   : cx3-15-15.cx3.hpc.ic.ac.uk
          coordinate file            : Cu_PhCHO_C4_4.xyz
          omp threads                :                     1

   ID    Z sym.   atoms
    1   29 Cu     1, 61, 133, 192
    2    6 C      2-6, 8-13, 15-19, 21-26, 28-33, 35-40, 62-66, 68-73, 75-79,
                  81-86, 88-93, 95-100, 121-132, 134-138, 140-145, 147-151,
                  153-158, 160-165, 167-172, 193-197, 199-204, 206-210,
                  212-217, 219-224, 226-231
    3    7 N      7, 20, 27, 41, 67, 80, 87, 101, 139, 152, 159, 173, 198,
                  211, 218, 232
    4    8 O      14, 34, 74, 94, 146, 166, 205, 225
    5    1 H      42-60, 102-120, 174-191, 233-250
########################################################################
[WARNING] Please study the warnings concerning your input carefully
-1- prog_main_parseArguments: Unknown option '-T' provided
########################################################################

           -------------------------------------------------
          |                 G F N 1 - x T B                 |
           -------------------------------------------------

        Reference                      10.1021/acs.jctc.7b00118
      * Hamiltonian:
        H0-scaling (s, p, d)           1.850000    2.250000    2.000000
        zeta-weighting                 0.000000
      * Dispersion:
        s8                             2.400000
        a1                             0.630000
        a2                             5.000000
        s9                             0.000000
      * Repulsion:
        kExp                           1.500000
        rExp                           1.000000
      * Coulomb:
        alpha                          2.000000
        third order                    atomic
        anisotropic                    false
      * Halogen bond correction:
        rad-scale                      1.300000
        damping                        0.440000


          ...................................................
          :                      SETUP                      :
          :.................................................:
          :  # basis functions                 876          :
          :  # atomic orbitals                 872          :
          :  # shells                          504          :
          :  # electrons                       838          :
          :  # halogen bonds                     0          :
          :  max. iterations                   250          :
          :  Hamiltonian                  GFN1-xTB          :
          :  restarted?                      false          :
          :  GBSA solvation                  false          :
          :  PC potential                    false          :
          :  electronic temp.          300.0000000     K    :
          :  accuracy                    1.0000000          :
          :  -> integral cutoff          0.2500000E+02      :
          :  -> integral neglect         0.1000000E-07      :
          :  -> SCF convergence          0.1000000E-05 Eh   :
          :  -> wf. convergence          0.2000000E-04 e    :
          :  Broyden damping             0.4000000          :
          ...................................................

 iter      E             dE          RMSdq      gap      omega  full diag
   1   -463.9990275 -0.463999E+03  0.107E+01    0.04       0.0  T
   2   -460.8497417  0.314929E+01  0.671E+00    0.06       1.0  T
   3   -183.8030129  0.277047E+03  0.123E+01    0.00       1.0  T
   4    312.4125707  0.496216E+03  0.138E+01    0.02       1.0  T
   5   -121.3221112 -0.433735E+03  0.854E+00    0.04       1.0  T
   6   -237.4110397 -0.116089E+03  0.744E+00    0.04       1.0  T
   7   -379.9709927 -0.142560E+03  0.623E+00    0.05       1.0  T
   8   -429.2535989 -0.492826E+02  0.349E+00    0.07       1.0  T
   9   -454.8709392 -0.256173E+02  0.248E+00    0.01       1.0  T
  10   -464.6223761 -0.975144E+01  0.139E+00    0.03       1.0  T
  11   -464.7609559 -0.138580E+00  0.122E+00    0.04       1.0  T
  12   -464.7374137  0.235422E-01  0.111E+00    0.23       1.0  T
  13   -464.8214628 -0.840491E-01  0.928E-01    0.02       1.0  T
  14   -464.5811750  0.240288E+00  0.119E+00    0.20       1.0  T
  15   -464.8901666 -0.308992E+00  0.799E-01    0.09       1.0  T
  16   -464.9252822 -0.351157E-01  0.772E-01    0.09       1.0  T
  17   -464.9288965 -0.361424E-02  0.622E-01    0.06       1.0  T
  18   -464.4102627  0.518634E+00  0.851E-01    0.05       1.0  T
  19   -464.4066013  0.366140E-02  0.856E-01    0.05       1.0  T
  20   -464.6718542 -0.265253E+00  0.767E-01    0.07       1.0  T
  21   -464.8522125 -0.180358E+00  0.691E-01    0.04       1.0  T
  22   -464.9080283 -0.558159E-01  0.619E-01    0.02       1.0  T
  23   -464.5802395  0.327789E+00  0.929E-01    0.04       1.0  T
  24   -464.9364208 -0.356181E+00  0.793E-01    0.07       1.0  T
  25   -464.7259303  0.210490E+00  0.973E-01    0.02       1.0  T
  26   -464.6230139  0.102916E+00  0.107E+00    0.01       1.0  T
  27   -464.8894032 -0.266389E+00  0.824E-01    0.03       1.0  T
  28   -464.9209712 -0.315680E-01  0.789E-01    0.01       1.0  T
  29   -464.9292335 -0.826226E-02  0.659E-01    0.03       1.0  T
  30   -465.0389008 -0.109667E+00  0.548E-01    0.04       1.0  T
  31   -465.0894898 -0.505890E-01  0.527E-01    0.05       1.0  T
  32   -465.1037792 -0.142894E-01  0.505E-01    0.04       1.0  T
  33   -465.1641908 -0.604117E-01  0.425E-01    0.04       1.0  T
  34   -465.1844939 -0.203031E-01  0.332E-01    0.01       1.0  T
  35   -465.1810737  0.342019E-02  0.360E-01    0.02       1.0  T
  36   -465.0905128  0.905609E-01  0.576E-01    0.06       1.0  T
  37   -465.2070270 -0.116514E+00  0.266E-01    0.01       1.0  T
  38   -465.2180949 -0.110679E-01  0.300E-01    0.04       1.0  T
  39   -465.2340224 -0.159275E-01  0.244E-01    0.03       1.0  T
  40   -465.2315632  0.245924E-02  0.160E-01    0.02       1.0  T
  41   -465.2543502 -0.227871E-01  0.879E-02    0.01       1.0  T
  42   -465.2551282 -0.777988E-03  0.118E-01    0.01       1.0  T
  43   -465.2587560 -0.362782E-02  0.852E-02    0.01       1.0  T
  44   -465.2606572 -0.190117E-02  0.376E-02    0.00       1.0  T
  45   -465.2602856  0.371570E-03  0.492E-02    0.00       1.0  T
  46   -465.2607618 -0.476177E-03  0.329E-02    0.00       1.0  T
  47   -465.2608119 -0.500468E-04  0.178E-02    0.00       1.0  T
  48   -465.2610821 -0.270258E-03  0.101E-02    0.00       1.0  T
  49   -465.2610446  0.375120E-04  0.124E-02    0.00       1.0  T
  50   -465.2611208 -0.762129E-04  0.337E-03    0.00       1.9  T
  51   -465.2611241 -0.331223E-05  0.242E-03    0.00       2.6  T
  52   -465.2611244 -0.220811E-06  0.222E-03    0.00       2.9  T
  53   -465.2611267 -0.236553E-05  0.694E-04    0.00       9.1  T
  54   -465.2611269 -0.187849E-06  0.393E-04    0.00      16.1  T
  55   -465.2611269 -0.373342E-08  0.327E-04    0.00      19.3  T
  56   -465.2611270 -0.670728E-07  0.206E-04    0.00      30.7  T
  57   -465.2611270  0.629439E-08  0.214E-04    0.00      29.5  T
  58   -465.2611270 -0.143229E-07  0.117E-04    0.00      54.3  T
  59   -465.2611270 -0.649186E-08  0.122E-05    0.00     519.6  T

   *** convergence criteria satisfied after 59 iterations ***

         #    Occupation            Energy/Eh            Energy/eV
      -------------------------------------------------------------
         1        2.0000           -0.7923123             -21.5599
       ...           ...                  ...                  ...
       413        2.0000           -0.3951460             -10.7525
       414        2.0000           -0.3917569             -10.6602
       415        2.0000           -0.3871867             -10.5359
       416        1.9993           -0.3731054             -10.1527
       417        1.9670           -0.3693900             -10.0516
       418        1.7411           -0.3673159              -9.9952
       419        0.9193           -0.3653518              -9.9417 (HOMO)
       420        0.9176           -0.3653484              -9.9416 (LUMO)
       421        0.3567           -0.3640541              -9.9064
       422        0.0990           -0.3626975              -9.8695
       423                         -0.3493420              -9.5061
       424                         -0.3482772              -9.4771
       ...                                ...                  ...
       872                          6.7389240             183.3755
      -------------------------------------------------------------
                  HL-Gap            0.0000034 Eh            0.0001 eV
             Fermi-level           -0.3655054 Eh           -9.9459 eV

 SCC (total)                   0 d,  0 h,  0 min, 16.512 sec
 SCC setup                      ...        0 min,  0.018 sec (  0.111%)
 Dispersion                     ...        0 min,  0.011 sec (  0.069%)
 classical contributions        ...        0 min,  0.004 sec (  0.022%)
 integral evaluation            ...        0 min,  0.311 sec (  1.884%)
 iterations                     ...        0 min, 15.406 sec ( 93.299%)
 molecular gradient             ...        0 min,  0.709 sec (  4.295%)
 printout                       ...        0 min,  0.053 sec (  0.319%)

         :::::::::::::::::::::::::::::::::::::::::::::::::::::
         ::                     SUMMARY                     ::
         :::::::::::::::::::::::::::::::::::::::::::::::::::::
         :: total energy            -456.428588939259 Eh    ::
         :: gradient norm              5.157050796232 Eh/a0 ::
         :: HOMO-LUMO gap              0.000092512098 eV    ::
         ::.................................................::
         :: SCC energy              -465.261126998525 Eh    ::
         :: -> electrostatic           0.665649364783 Eh    ::
         :: repulsion energy           9.057903442929 Eh    ::
         :: dispersion energy         -0.225365383663 Eh    ::
         :: halogen bond corr.         0.000000000000 Eh    ::
         :: add. restraining           0.000000000000 Eh    ::
         :: total charge               0.000000000000 e     ::
         :::::::::::::::::::::::::::::::::::::::::::::::::::::

      ----------------------------------------------------------- 
     |                   =====================                   |
     |                        A N C O P T                        |
     |                   =====================                   |
     |               Approximate Normal Coordinate               |
     |                Rational Function Optimizer                |
      ----------------------------------------------------------- 

          ...................................................
          :                      SETUP                      :
          :.................................................:
          :   optimization level            normal          :
          :   max. optcycles                   750          :
          :   ANC micro-cycles                  20          :
          :   degrees of freedom               744          :
          :.................................................:
          :   RF solver                   davidson          :
          :   write xtbopt.log                true          :
          :   linear?                        false          :
          :   energy convergence         0.5000000E-05 Eh   :
          :   grad. convergence          0.1000000E-02 Eh/α :
          :   maximium RF displ.         1.0000000          :
          :   Hlow (freq-cutoff)         0.1000000E-01      :
          :   Hmax (freq-cutoff)         5.0000000          :
          :   S6 in model hess.         20.0000000          :
          ...................................................

generating ANC from model Hessian ...
Using Lindh-Hessian (1995)
 Shifting diagonal of input Hessian by    1.0056193300201426E-002
 Lowest  eigenvalues of input Hessian
    0.010000    0.010025    0.010034    0.010039    0.010046    0.010050
    0.010050    0.010052    0.010053    0.010054    0.000000    0.000000
    0.000000    0.000000    0.000000    0.000000    0.010064    0.010084
 Highest eigenvalues
    3.329664    3.330214    4.110583    4.111696    4.353420    4.354199


........................................................................
.............................. CYCLE    1 ..............................
........................................................................
   1   -465.2611270 -0.465261E+03  0.919E-06    0.00       0.0  T
   2   -465.2611270  0.296920E-07  0.175E-04    0.00      36.1  T
   3   -465.2611270 -0.269849E-07  0.571E-05    0.00     110.8  T
     SCC iter.                  ...        0 min,  0.795 sec
     gradient                   ...        0 min,  0.708 sec
 * total energy  :  -456.4285889 Eh     change        0.2670276E-08 Eh
   gradient norm :     5.1570512 Eh/α   predicted     0.0000000E+00 (-100.00%)
   displ. norm   :     0.6944185 α      lambda       -0.3541037E+01
   maximum displ.:     0.3991110 α      in ANC's #744, #743, #742, ...

........................................................................
.............................. CYCLE    2 ..............................
........................................................................
   1   -465.3785449 -0.465379E+03  0.415E-01    0.00       0.0  T
   2   -464.8361793  0.542366E+00  0.918E-01    0.18       1.0  T
   3   -465.0079809 -0.171802E+00  0.793E-01    0.23       1.0  T
   4   -465.1219231 -0.113942E+00  0.624E-01    0.12       1.0  T
   5   -465.2422539 -0.120331E+00  0.555E-01    0.08       1.0  T
   6   -465.2381463  0.410759E-02  0.614E-01    0.08       1.0  T
   7   -465.3573313 -0.119185E+00  0.391E-01    0.03       1.0  T
   8   -465.3949116 -0.375803E-01  0.285E-01    0.00       1.0  T
   9   -465.4381413 -0.432297E-01  0.138E-01    0.00       1.0  T
  10   -465.4226058  0.155354E-01  0.203E-01    0.00       1.0  T
  11   -465.4417128 -0.191069E-01  0.951E-02    0.00       1.0  T
  12   -465.4472195 -0.550676E-02  0.252E-02    0.00       1.0  T
  13   -465.4473352 -0.115703E-03  0.211E-02    0.00       1.0  T
  14   -465.4475481 -0.212895E-03  0.915E-03    0.00       1.0  T
  15   -465.4475664 -0.182737E-04  0.755E-03    0.00       1.0  T
  16   -465.4475811 -0.147374E-04  0.629E-03    0.00       1.0  T
  17   -465.4476014 -0.202805E-04  0.239E-03    0.00       2.6  T
  18   -465.4476049 -0.349327E-05  0.483E-04    0.00      13.1  T
  19   -465.4476047  0.189400E-06  0.717E-04    0.00       8.8  T
  20   -465.4476049 -0.205761E-06  0.453E-04    0.00      14.0  T
  21   -465.4476050 -0.130475E-06  0.118E-04    0.00      53.7  T
  22   -465.4476051 -0.658537E-08  0.699E-05    0.00      90.4  T
     SCC iter.                  ...        0 min,  5.757 sec
     gradient                   ...        0 min,  0.714 sec
 * total energy  :  -458.2234025 Eh     change       -0.1794814E+01 Eh
   gradient norm :     1.1490796 Eh/α   predicted    -0.2624293E+01 (  46.22%)
   displ. norm   :     0.5358559 α      lambda       -0.4754077E+00
   maximum displ.:     0.1286863 α      in ANC's #580, #565, #570, ...

........................................................................
.............................. CYCLE    3 ..............................
........................................................................
   1   -465.6480771 -0.465648E+03  0.174E-01    0.00       0.0  T
   2   -465.2741855  0.373892E+00  0.769E-01    0.25       1.0  T
   3   -465.5364613 -0.262276E+00  0.444E-01    0.01       1.0  T
   4   -465.3389120  0.197549E+00  0.734E-01    0.15       1.0  T
   5   -465.5527009 -0.213789E+00  0.408E-01    0.05       1.0  T
   6   -465.5700008 -0.172999E-01  0.352E-01    0.05       1.0  T
   7   -465.6489876 -0.789868E-01  0.146E-01    0.00       1.0  T
   8   -465.6466021  0.238551E-02  0.152E-01    0.00       1.0  T
   9   -465.6521848 -0.558269E-02  0.121E-01    0.01       1.0  T
  10   -465.6608675 -0.868267E-02  0.413E-02    0.01       1.0  T
  11   -465.6618070 -0.939460E-03  0.167E-02    0.00       1.0  T
  12   -465.6619137 -0.106721E-03  0.112E-02    0.00       1.0  T
  13   -465.6619888 -0.750855E-04  0.347E-03    0.00       1.8  T
  14   -465.6619925 -0.376174E-05  0.238E-03    0.00       2.7  T
  15   -465.6619959 -0.333296E-05  0.393E-04    0.00      16.1  T
  16   -465.6619958  0.345566E-07  0.484E-04    0.00      13.1  T
  17   -465.6619959 -0.105054E-06  0.243E-04    0.00      26.1  T
  18   -465.6619960 -0.318795E-07  0.979E-05    0.00      64.6  T
  19   -465.6619960 -0.442066E-08  0.447E-05    0.00     141.6  T
     SCC iter.                  ...        0 min,  4.984 sec
     gradient                   ...        0 min,  0.713 sec
 * total energy  :  -458.5804192 Eh     change       -0.3570167E+00 Eh
   gradient norm :     0.6211047 Eh/α   predicted    -0.3059589E+00 ( -14.30%)
   displ. norm   :     0.5996973 α      lambda       -0.2700675E+00
   maximum displ.:     0.1065822 α      in ANC's #253, #307, #321, ...

........................................................................
.............................. CYCLE    4 ..............................
........................................................................
   1   -465.8160428 -0.465816E+03  0.211E-01    0.00       0.0  T
   2   -465.4083263  0.407716E+00  0.810E-01    0.36       1.0  T
   3   -465.6696582 -0.261332E+00  0.536E-01    0.09       1.0  T
   4   -465.5952256  0.744326E-01  0.633E-01    0.10       1.0  T
   5   -465.6025434 -0.731785E-02  0.567E-01    0.06       1.0  T
   6   -465.7514645 -0.148921E+00  0.367E-01    0.04       1.0  T
   7   -465.7750580 -0.235936E-01  0.312E-01    0.00       1.0  T
   8   -465.8246284 -0.495703E-01  0.149E-01    0.00       1.0  T
   9   -465.8373065 -0.126781E-01  0.514E-02    0.00       1.0  T
  10   -465.8389601 -0.165361E-02  0.166E-02    0.00       1.0  T
  11   -465.8388192  0.140866E-03  0.227E-02    0.00       1.0  T
  12   -465.8390610 -0.241756E-03  0.115E-02    0.00       1.0  T
  13   -465.8391184 -0.574670E-04  0.604E-03    0.00       1.0  T
  14   -465.8391382 -0.197996E-04  0.267E-03    0.00       2.4  T
  15   -465.8391425 -0.423916E-05  0.376E-04    0.00      16.8  T
  16   -465.8391423  0.171767E-06  0.663E-04    0.00       9.5  T
  17   -465.8391425 -0.243610E-06  0.182E-04    0.00      34.7  T
  18   -465.8391425 -0.131664E-07  0.103E-04    0.00      61.7  T
     SCC iter.                  ...        0 min,  4.720 sec
     gradient                   ...        0 min,  0.712 sec
 * total energy  :  -458.7636976 Eh     change       -0.1832784E+00 Eh
   gradient norm :     0.3156415 Eh/α   predicted    -0.1835968E+00 (   0.17%)
   displ. norm   :     0.6473447 α      lambda       -0.1318756E+00
   maximum displ.:     0.1467064 α      in ANC's #321, #307, #253, ...

........................................................................
.............................. CYCLE    5 ..............................
........................................................................
   1   -465.8580947 -0.465858E+03  0.163E-01    0.00       0.0  T
   2   -465.4566304  0.401464E+00  0.785E-01    0.34       1.0  T
   3   -465.6306774 -0.174047E+00  0.575E-01    0.09       1.0  T
   4   -465.6493582 -0.186808E-01  0.546E-01    0.07       1.0  T
   5   -465.6445661  0.479212E-02  0.614E-01    0.11       1.0  T
   6   -465.8452912 -0.200725E+00  0.201E-01    0.02       1.0  T
   7   -465.8412384  0.405283E-02  0.218E-01    0.01       1.0  T
   8   -465.8664784 -0.252401E-01  0.849E-02    0.00       1.0  T
   9   -465.8662867  0.191762E-03  0.872E-02    0.00       1.0  T
  10   -465.8711320 -0.484534E-02  0.135E-02    0.00       1.0  T
  11   -465.8711855 -0.535001E-04  0.980E-03    0.00       1.0  T
  12   -465.8712350 -0.494751E-04  0.446E-03    0.00       1.4  T
  13   -465.8712406 -0.565383E-05  0.312E-03    0.00       2.0  T
  14   -465.8712460 -0.534308E-05  0.116E-03    0.00       5.5  T
  15   -465.8712466 -0.575151E-06  0.621E-04    0.00      10.2  T
  16   -465.8712467 -0.907227E-07  0.519E-04    0.00      12.2  T
  17   -465.8712468 -0.109448E-06  0.299E-04    0.00      21.2  T
  18   -465.8712468 -0.534427E-07  0.465E-05    0.00     135.9  T
  19   -465.8712468 -0.566104E-09  0.356E-05    0.00     177.6  T
     SCC iter.                  ...        0 min,  4.973 sec
     gradient                   ...        0 min,  0.712 sec
 * total energy  :  -458.8566176 Eh     change       -0.9292004E-01 Eh
   gradient norm :     0.1618570 Eh/α   predicted    -0.9357052E-01 (   0.70%)
   displ. norm   :     0.7139658 α      lambda       -0.7160608E-01
   maximum displ.:     0.2191468 α      in ANC's #79, #253, #307, ...

........................................................................
.............................. CYCLE    6 ..............................
........................................................................
   1   -465.8698116 -0.465870E+03  0.132E-01    0.00       0.0  T
   2   -465.4692069  0.400605E+00  0.779E-01    0.36       1.0  T
   3   -465.7590329 -0.289826E+00  0.446E-01    0.03       1.0  T
   4   -465.8070657 -0.480329E-01  0.333E-01    0.01       1.0  T
   5   -465.6601572  0.146909E+00  0.540E-01    0.08       1.0  T
   6   -465.8664612 -0.206304E+00  0.137E-01    0.01       1.0  T
   7   -465.8755795 -0.911826E-02  0.620E-02    0.01       1.0  T
   8   -465.8663147  0.926480E-02  0.135E-01    0.01       1.0  T
   9   -465.8772791 -0.109644E-01  0.291E-02    0.00       1.0  T
  10   -465.8776244 -0.345245E-03  0.150E-02    0.00       1.0  T
  11   -465.8777531 -0.128731E-03  0.710E-03    0.00       1.0  T
  12   -465.8777822 -0.291545E-04  0.312E-03    0.00       2.0  T
  13   -465.8777863 -0.406107E-05  0.168E-03    0.00       3.8  T
  14   -465.8777879 -0.158181E-05  0.585E-04    0.00      10.8  T
  15   -465.8777880 -0.671630E-07  0.433E-04    0.00      14.6  T
  16   -465.8777881 -0.104279E-06  0.214E-04    0.00      29.6  T
  17   -465.8777881 -0.267366E-07  0.869E-05    0.00      72.8  T
  18   -465.8777881 -0.444970E-08  0.191E-05    0.00     331.5  T
     SCC iter.                  ...        0 min,  4.726 sec
     gradient                   ...        0 min,  0.710 sec
 * total energy  :  -458.9071268 Eh     change       -0.5050913E-01 Eh
   gradient norm :     0.1146266 Eh/α   predicted    -0.5405359E-01 (   7.02%)
   displ. norm   :     0.6667358 α      lambda       -0.3572171E-01
   maximum displ.:     0.2571921 α      in ANC's #79, #77, #53, ...

........................................................................
.............................. CYCLE    7 ..............................
........................................................................
   1   -465.9083308 -0.465908E+03  0.436E-02    0.00       0.0  T
   2   -465.6060827  0.302248E+00  0.648E-01    0.11       1.0  T
   3   -465.8660759 -0.259993E+00  0.266E-01    0.04       1.0  T
   4   -465.9016465 -0.355706E-01  0.112E-01    0.02       1.0  T
   5   -465.9075380 -0.589143E-02  0.517E-02    0.00       1.0  T
   6   -465.9024489  0.508902E-02  0.992E-02    0.01       1.0  T
   7   -465.9050214 -0.257241E-02  0.820E-02    0.00       1.0  T
   8   -465.9085198 -0.349846E-02  0.318E-02    0.00       1.0  T
   9   -465.9091032 -0.583417E-03  0.942E-03    0.00       1.0  T
  10   -465.9091502 -0.469985E-04  0.363E-03    0.00       1.7  T
  11   -465.9091577 -0.742222E-05  0.160E-03    0.00       4.0  T
  12   -465.9091592 -0.155068E-05  0.516E-04    0.00      12.3  T
  13   -465.9091593 -0.735490E-07  0.410E-04    0.00      15.4  T
  14   -465.9091594 -0.101769E-06  0.677E-05    0.00      93.5  T
  15   -465.9091594 -0.194092E-08  0.415E-05    0.00     152.4  T
     SCC iter.                  ...        0 min,  3.951 sec
     gradient                   ...        0 min,  0.711 sec
 * total energy  :  -458.9343409 Eh     change       -0.2721413E-01 Eh
   gradient norm :     0.0678927 Eh/α   predicted    -0.2580070E-01 (  -5.19%)
   displ. norm   :     0.7490425 α      lambda       -0.2539101E-01
   maximum displ.:     0.3488241 α      in ANC's #79, #53, #77, ...

........................................................................
.............................. CYCLE    8 ..............................
........................................................................
   1   -465.9309582 -0.465931E+03  0.339E-02    0.00       0.0  T
   2   -465.7820188  0.148939E+00  0.508E-01    0.05       1.0  T
   3   -465.9201900 -0.138171E+00  0.127E-01    0.02       1.0  T
   4   -465.9287070 -0.851702E-02  0.618E-02    0.01       1.0  T
   5   -465.9054243  0.232827E-01  0.196E-01    0.01       1.0  T
   6   -465.9183494 -0.129251E-01  0.145E-01    0.01       1.0  T
   7   -465.9298849 -0.115355E-01  0.495E-02    0.00       1.0  T
   8   -465.9313017 -0.141679E-02  0.125E-02    0.00       1.0  T
   9   -465.9313821 -0.804347E-04  0.450E-03    0.00       1.4  T
  10   -465.9313942 -0.121080E-04  0.116E-03    0.00       5.5  T
  11   -465.9313948 -0.552933E-06  0.684E-04    0.00       9.2  T
  12   -465.9313950 -0.256763E-06  0.200E-04    0.00      31.7  T
  13   -465.9313951 -0.181772E-07  0.985E-05    0.00      64.2  T
     SCC iter.                  ...        0 min,  3.415 sec
     gradient                   ...        0 min,  0.710 sec
 * total energy  :  -458.9525547 Eh     change       -0.1821376E-01 Eh
   gradient norm :     0.0486193 Eh/α   predicted    -0.1981850E-01 (   8.81%)
   displ. norm   :     0.7977351 α      lambda       -0.1865030E-01
   maximum displ.:     0.3169440 α      in ANC's #79, #77, #53, ...

........................................................................
.............................. CYCLE    9 ..............................
........................................................................
   1   -465.9471192 -0.465947E+03  0.567E-02    0.00       0.0  T
   2   -465.7798309  0.167288E+00  0.513E-01    0.03       1.0  T
   3   -465.8394953 -0.596644E-01  0.437E-01    0.04       1.0  T
   4   -465.9236840 -0.841887E-01  0.197E-01    0.00       1.0  T
   5   -465.9073084  0.163757E-01  0.252E-01    0.00       1.0  T
   6   -465.9420335 -0.347251E-01  0.107E-01    0.00       1.0  T
   7   -465.9473488 -0.531533E-02  0.526E-02    0.00       1.0  T
   8   -465.9472525  0.962744E-04  0.537E-02    0.00       1.0  T
   9   -465.9490584 -0.180586E-02  0.578E-03    0.00       1.1  T
  10   -465.9490674 -0.896199E-05  0.502E-03    0.00       1.3  T
  11   -465.9490818 -0.143997E-04  0.610E-04    0.00      10.4  T
  12   -465.9490819 -0.178531E-06  0.359E-04    0.00      17.6  T
  13   -465.9490818  0.125476E-06  0.572E-04    0.00      11.0  T
  14   -465.9490820 -0.133952E-06  0.332E-04    0.00      19.0  T
  15   -465.9490820 -0.630519E-07  0.103E-04    0.00      61.6  T
  16   -465.9490820 -0.700828E-08  0.551E-06    0.00    1146.9  T
     SCC iter.                  ...        0 min,  4.203 sec
     gradient                   ...        0 min,  0.715 sec
 * total energy  :  -458.9638886 Eh     change       -0.1133396E-01 Eh
   gradient norm :     0.0512684 Eh/α   predicted    -0.1525951E-01 (  34.64%)
   displ. norm   :     0.7059995 α      lambda       -0.1510800E-01
   maximum displ.:     0.3116408 α      in ANC's #79, #53, #77, ...

........................................................................
.............................. CYCLE   10 ..............................
........................................................................
   1   -465.9801750 -0.465980E+03  0.100E-01    0.00       0.0  T
   2   -465.6643501  0.315825E+00  0.708E-01    0.09       1.0  T
   3   -465.6808663 -0.165162E-01  0.663E-01    0.09       1.0  T
   4   -465.8539973 -0.173131E+00  0.477E-01    0.06       1.0  T
   5   -465.9652149 -0.111218E+00  0.183E-01    0.00       1.0  T
   6   -465.9801160 -0.149011E-01  0.989E-02    0.01       1.0  T
   7   -465.9836433 -0.352739E-02  0.664E-02    0.00       1.0  T
   8   -465.9839638 -0.320467E-03  0.628E-02    0.00       1.0  T
   9   -465.9864512 -0.248734E-02  0.942E-03    0.00       1.0  T
  10   -465.9864343  0.169044E-04  0.110E-02    0.00       1.0  T
  11   -465.9864988 -0.645069E-04  0.364E-03    0.00       1.7  T
  12   -465.9865041 -0.539062E-05  0.202E-03    0.00       3.1  T
  13   -465.9865059 -0.179622E-05  0.100E-03    0.00       6.3  T
  14   -465.9865064 -0.409262E-06  0.540E-04    0.00      11.7  T
  15   -465.9865065 -0.185577E-06  0.856E-05    0.00      73.9  T
  16   -465.9865065 -0.185190E-08  0.609E-05    0.00     103.9  T
     SCC iter.                  ...        0 min,  4.196 sec
     gradient                   ...        0 min,  0.714 sec
 * total energy  :  -458.9738424 Eh     change       -0.9953793E-02 Eh
   gradient norm :     0.0503862 Eh/α   predicted    -0.1131919E-01 (  13.72%)
   displ. norm   :     0.6760551 α      lambda       -0.9846522E-02
   maximum displ.:     0.2863483 α      in ANC's #53, #79, #52, ...

........................................................................
.............................. CYCLE   11 ..............................
........................................................................
   1   -466.0016505 -0.466002E+03  0.860E-02    0.00       0.0  T
   2   -465.5927836  0.408867E+00  0.807E-01    0.30       1.0  T
   3   -465.8158173 -0.223034E+00  0.522E-01    0.07       1.0  T
   4   -465.9986031 -0.182786E+00  0.111E-01    0.01       1.0  T
   5   -465.9972471  0.135603E-02  0.123E-01    0.01       1.0  T
   6   -466.0060130 -0.876594E-02  0.817E-03    0.00       1.0  T
   7   -466.0056759  0.337115E-03  0.243E-02    0.00       1.0  T
   8   -466.0059588 -0.282919E-03  0.121E-02    0.00       1.0  T
   9   -466.0059458  0.130791E-04  0.128E-02    0.00       1.0  T
  10   -466.0060189 -0.731396E-04  0.672E-03    0.00       1.0  T
  11   -466.0060465 -0.276108E-04  0.116E-03    0.00       5.5  T
  12   -466.0060473 -0.755853E-06  0.342E-04    0.00      18.5  T
  13   -466.0060473 -0.729129E-07  0.227E-05    0.00     279.0  T
  14   -466.0060473  0.106184E-08  0.470E-05    0.00     134.5  T
     SCC iter.                  ...        0 min,  3.676 sec
     gradient                   ...        0 min,  0.717 sec
 * total energy  :  -458.9808601 Eh     change       -0.7017677E-02 Eh
   gradient norm :     0.0396228 Eh/α   predicted    -0.7173440E-02 (   2.22%)
   displ. norm   :     0.7137046 α      lambda       -0.7828918E-02
   maximum displ.:     0.3357280 α      in ANC's #53, #79, #52, ...

........................................................................
.............................. CYCLE   12 ..............................
........................................................................
   1   -466.0132264 -0.466013E+03  0.101E-01    0.01       0.0  T
   2   -465.5863495  0.426877E+00  0.827E-01    0.40       1.0  T
   3   -465.8935053 -0.307156E+00  0.436E-01    0.03       1.0  T
   4   -466.0050297 -0.111524E+00  0.153E-01    0.01       1.0  T
   5   -466.0059467 -0.916956E-03  0.146E-01    0.01       1.0  T
   6   -466.0188363 -0.128896E-01  0.283E-02    0.00       1.0  T
   7   -466.0190391 -0.202767E-03  0.200E-02    0.00       1.0  T
   8   -466.0182337  0.805384E-03  0.412E-02    0.00       1.0  T
   9   -466.0192682 -0.103451E-02  0.482E-03    0.00       1.3  T
  10   -466.0192720 -0.377467E-05  0.408E-03    0.00       1.5  T
  11   -466.0192809 -0.893459E-05  0.146E-03    0.00       4.3  T
  12   -466.0192823 -0.132019E-05  0.453E-05    0.00     139.7  T
  13   -466.0192823  0.561386E-09  0.539E-05    0.00     117.3  T
  14   -466.0192823 -0.726345E-09  0.420E-05    0.00     150.5  T
     SCC iter.                  ...        0 min,  3.691 sec
     gradient                   ...        0 min,  0.717 sec
 * total energy  :  -458.9864395 Eh     change       -0.5579431E-02 Eh
   gradient norm :     0.0303647 Eh/α   predicted    -0.5908392E-02 (   5.90%)
   displ. norm   :     0.7071009 α      lambda       -0.5580900E-02
   maximum displ.:     0.3316378 α      in ANC's #53, #52, #79, ...

........................................................................
.............................. CYCLE   13 ..............................
........................................................................
   1   -466.0274854 -0.466027E+03  0.896E-02    0.01       0.0  T
   2   -465.6089042  0.418581E+00  0.820E-01    0.29       1.0  T
   3   -465.8294327 -0.220529E+00  0.552E-01    0.05       1.0  T
   4   -465.9943417 -0.164909E+00  0.249E-01    0.02       1.0  T
   5   -466.0269186 -0.325769E-01  0.937E-02    0.00       1.0  T
   6   -466.0314963 -0.457772E-02  0.353E-02    0.00       1.0  T
   7   -466.0318327 -0.336426E-03  0.269E-02    0.00       1.0  T
   8   -466.0318207  0.120487E-04  0.276E-02    0.00       1.0  T
   9   -466.0322418 -0.421148E-03  0.871E-03    0.00       1.0  T
  10   -466.0322798 -0.379474E-04  0.361E-03    0.00       1.8  T
  11   -466.0322862 -0.640246E-05  0.161E-03    0.00       3.9  T
  12   -466.0322877 -0.155571E-05  0.228E-04    0.00      27.7  T
  13   -466.0322877 -0.504713E-09  0.224E-04    0.00      28.2  T
  14   -466.0322877 -0.187214E-07  0.139E-04    0.00      45.5  T
  15   -466.0322877 -0.939480E-08  0.598E-05    0.00     105.7  T
     SCC iter.                  ...        0 min,  3.940 sec
     gradient                   ...        0 min,  0.716 sec
 * total energy  :  -458.9900692 Eh     change       -0.3629647E-02 Eh
   gradient norm :     0.0273152 Eh/α   predicted    -0.4185658E-02 (  15.32%)
   displ. norm   :     0.6685887 α      lambda       -0.4872737E-02
   maximum displ.:     0.3396655 α      in ANC's #53, #52, #77, ...

........................................................................
.............................. CYCLE   14 ..............................
........................................................................
   1   -466.0430170 -0.466043E+03  0.570E-02    0.00       0.0  T
   2   -465.7536373  0.289380E+00  0.685E-01    0.10       1.0  T
   3   -465.9001637 -0.146526E+00  0.492E-01    0.00       1.0  T
   4   -466.0378653 -0.137702E+00  0.102E-01    0.01       1.0  T
   5   -466.0332424  0.462291E-02  0.132E-01    0.01       1.0  T
   6   -466.0446034 -0.113610E-01  0.211E-02    0.00       1.0  T
   7   -466.0445216  0.817659E-04  0.248E-02    0.00       1.0  T
   8   -466.0448786 -0.356947E-03  0.579E-03    0.00       1.1  T
   9   -466.0446933  0.185294E-03  0.183E-02    0.00       1.0  T
  10   -466.0448919 -0.198655E-03  0.317E-03    0.00       2.0  T
  11   -466.0448951 -0.321553E-05  0.222E-03    0.00       2.8  T
  12   -466.0448980 -0.282346E-05  0.463E-04    0.00      13.7  T
  13   -466.0448980 -0.341697E-07  0.401E-04    0.00      15.8  T
  14   -466.0448981 -0.497007E-07  0.277E-04    0.00      22.8  T
  15   -466.0448981 -0.331625E-07  0.144E-04    0.00      44.0  T
  16   -466.0448981 -0.123938E-07  0.163E-05    0.00     387.7  T
     SCC iter.                  ...        0 min,  4.207 sec
     gradient                   ...        0 min,  0.710 sec
 * total energy  :  -458.9928261 Eh     change       -0.2756943E-02 Eh
   gradient norm :     0.0287432 Eh/α   predicted    -0.3525462E-02 (  27.88%)
   displ. norm   :     0.5507018 α      lambda       -0.2790373E-02
   maximum displ.:     0.2732115 α      in ANC's #53, #52, #48, ...

........................................................................
.............................. CYCLE   15 ..............................
........................................................................
   1   -466.0422806 -0.466042E+03  0.380E-02    0.00       0.0  T
   2   -465.7951850  0.247096E+00  0.606E-01    0.07       1.0  T
   3   -465.9372301 -0.142045E+00  0.415E-01    0.02       1.0  T
   4   -466.0428615 -0.105631E+00  0.211E-02    0.00       1.0  T
   5   -466.0240863  0.187753E-01  0.177E-01    0.01       1.0  T
   6   -466.0427757 -0.186895E-01  0.240E-02    0.00       1.0  T
   7   -466.0431018 -0.326088E-03  0.476E-03    0.00       1.3  T
   8   -466.0430980  0.382800E-05  0.564E-03    0.00       1.1  T
   9   -466.0431107 -0.126894E-04  0.301E-03    0.00       2.1  T
  10   -466.0431095  0.120102E-05  0.343E-03    0.00       1.8  T
  11   -466.0431161 -0.665101E-05  0.578E-04    0.00      10.9  T
  12   -466.0431163 -0.132180E-06  0.329E-04    0.00      19.2  T
  13   -466.0431163 -0.634738E-07  0.492E-05    0.00     128.6  T
  14   -466.0431163  0.118365E-08  0.639E-05    0.00      99.0  T
     SCC iter.                  ...        0 min,  3.680 sec
     gradient                   ...        0 min,  0.716 sec
 * total energy  :  -458.9942978 Eh     change       -0.1471654E-02 Eh
   gradient norm :     0.0202990 Eh/α   predicted    -0.1818316E-02 (  23.56%)
   displ. norm   :     0.5711206 α      lambda       -0.3360826E-02
   maximum displ.:     0.2477610 α      in ANC's #53, #52, #48, ...

........................................................................
.............................. CYCLE   16 ..............................
........................................................................
   1   -466.0423826 -0.466042E+03  0.493E-02    0.00       0.0  T
   2   -465.6413344  0.401048E+00  0.760E-01    0.17       1.0  T
   3   -465.9149480 -0.273614E+00  0.469E-01    0.04       1.0  T
   4   -466.0428277 -0.127880E+00  0.422E-02    0.00       1.0  T
   5   -466.0240335  0.187942E-01  0.180E-01    0.01       1.0  T
   6   -466.0436899 -0.196564E-01  0.173E-02    0.00       1.0  T
   7   -466.0437685 -0.786490E-04  0.129E-02    0.00       1.0  T
   8   -466.0437797 -0.111246E-04  0.124E-02    0.00       1.0  T
   9   -466.0438621 -0.824642E-04  0.471E-03    0.00       1.3  T
  10   -466.0438641 -0.195056E-05  0.460E-03    0.00       1.4  T
  11   -466.0438764 -0.123460E-04  0.997E-04    0.00       6.3  T
  12   -466.0438770 -0.542859E-06  0.256E-04    0.00      24.7  T
  13   -466.0438770 -0.395878E-07  0.481E-05    0.00     131.4  T
  14   -466.0438770 -0.577700E-09  0.351E-05    0.00     180.1  T
     SCC iter.                  ...        0 min,  3.674 sec
     gradient                   ...        0 min,  0.712 sec
 * total energy  :  -458.9955305 Eh     change       -0.1232765E-02 Eh
   gradient norm :     0.0353112 Eh/α   predicted    -0.2228532E-02 (  80.78%)
   displ. norm   :     0.3491244 α      lambda       -0.1823909E-02
   maximum displ.:     0.1307979 α      in ANC's #48, #53, #49, ...

........................................................................
.............................. CYCLE   17 ..............................
........................................................................
   1   -466.0493683 -0.466049E+03  0.151E-02    0.00       0.0  T
   2   -465.9158164  0.133552E+00  0.446E-01    0.05       1.0  T
   3   -466.0422187 -0.126402E+00  0.107E-01    0.01       1.0  T
   4   -466.0489959 -0.677715E-02  0.299E-02    0.00       1.0  T
   5   -466.0471586  0.183725E-02  0.621E-02    0.00       1.0  T
   6   -466.0494673 -0.230871E-02  0.675E-03    0.00       1.0  T
   7   -466.0494753 -0.796744E-05  0.619E-03    0.00       1.0  T
   8   -466.0494939 -0.186115E-04  0.290E-03    0.00       2.2  T
   9   -466.0494984 -0.452007E-05  0.648E-04    0.00       9.8  T
  10   -466.0494987 -0.247662E-06  0.246E-04    0.00      25.7  T
  11   -466.0494987 -0.418185E-07  0.389E-05    0.00     162.7  T
  12   -466.0494987  0.202800E-08  0.701E-05    0.00      90.3  T
     SCC iter.                  ...        0 min,  3.160 sec
     gradient                   ...        0 min,  0.719 sec
 * total energy  :  -458.9967706 Eh     change       -0.1240040E-02 Eh
   gradient norm :     0.0142844 Eh/α   predicted    -0.1023116E-02 ( -17.49%)
   displ. norm   :     0.4817486 α      lambda       -0.1482901E-02
   maximum displ.:     0.1964004 α      in ANC's #48, #49, #30, ...

........................................................................
.............................. CYCLE   18 ..............................
........................................................................
   1   -466.0487538 -0.466049E+03  0.819E-03    0.00       0.0  T
   2   -466.0014191  0.473347E-01  0.260E-01    0.02       1.0  T
   3   -466.0486726 -0.472535E-01  0.145E-02    0.00       1.0  T
   4   -466.0434736  0.519895E-02  0.926E-02    0.00       1.0  T
   5   -466.0487093 -0.523571E-02  0.112E-02    0.00       1.0  T
   6   -466.0478734  0.835965E-03  0.405E-02    0.00       1.0  T
   7   -466.0487472 -0.873793E-03  0.886E-03    0.00       1.0  T
   8   -466.0487842 -0.370540E-04  0.404E-03    0.00       1.6  T
   9   -466.0487931 -0.890817E-05  0.566E-04    0.00      11.2  T
  10   -466.0487933 -0.141116E-06  0.336E-04    0.00      18.8  T
  11   -466.0487933 -0.737415E-07  0.667E-05    0.00      94.8  T
  12   -466.0487933 -0.233996E-08  0.317E-05    0.00     199.5  T
     SCC iter.                  ...        0 min,  3.155 sec
     gradient                   ...        0 min,  0.712 sec
 * total energy  :  -458.9977497 Eh     change       -0.9791284E-03 Eh
   gradient norm :     0.0144250 Eh/α   predicted    -0.9135367E-03 (  -6.70%)
   displ. norm   :     0.5614821 α      lambda       -0.1239526E-02
   maximum displ.:     0.2352863 α      in ANC's #48, #49, #30, ...

........................................................................
.............................. CYCLE   19 ..............................
........................................................................
   1   -466.0471738 -0.466047E+03  0.834E-03    0.00       0.0  T
   2   -466.0049754  0.421984E-01  0.263E-01    0.02       1.0  T
   3   -466.0470315 -0.420561E-01  0.168E-02    0.00       1.0  T
   4   -466.0438713  0.316012E-02  0.731E-02    0.00       1.0  T
   5   -466.0462026 -0.233130E-02  0.403E-02    0.01       1.0  T
   6   -466.0471565 -0.953871E-03  0.915E-03    0.00       1.0  T
   7   -466.0471897 -0.332236E-04  0.608E-03    0.00       1.0  T
   8   -466.0472034 -0.137056E-04  0.385E-03    0.00       1.6  T
   9   -466.0472118 -0.831022E-05  0.878E-04    0.00       7.2  T
  10   -466.0472122 -0.402331E-06  0.292E-04    0.00      21.6  T
  11   -466.0472122 -0.541580E-07  0.613E-05    0.00     103.1  T
  12   -466.0472122 -0.101335E-08  0.473E-05    0.00     133.6  T
     SCC iter.                  ...        0 min,  3.155 sec
     gradient                   ...        0 min,  0.714 sec
 * total energy  :  -458.9985785 Eh     change       -0.8287668E-03 Eh
   gradient norm :     0.0150319 Eh/α   predicted    -0.8151630E-03 (  -1.64%)
   displ. norm   :     0.6020275 α      lambda       -0.1315081E-02
   maximum displ.:     0.2566181 α      in ANC's #48, #49, #30, ...

........................................................................
.............................. CYCLE   20 ..............................
........................................................................
   1   -466.0441594 -0.466044E+03  0.190E-02    0.00       0.0  T
   2   -465.8924706  0.151689E+00  0.491E-01    0.03       1.0  T
   3   -466.0436822 -0.151212E+00  0.334E-02    0.00       1.0  T
   4   -466.0400087  0.367347E-02  0.809E-02    0.01       1.0  T
   5   -466.0403133 -0.304544E-03  0.817E-02    0.00       1.0  T
   6   -466.0443281 -0.401484E-02  0.929E-03    0.00       1.0  T
   7   -466.0443661 -0.380340E-04  0.426E-03    0.00       1.5  T
   8   -466.0443725 -0.637548E-05  0.276E-03    0.00       2.3  T
   9   -466.0443764 -0.389477E-05  0.125E-03    0.00       5.1  T
  10   -466.0443774 -0.971766E-06  0.312E-04    0.00      20.3  T
  11   -466.0443774 -0.454030E-07  0.192E-04    0.00      33.0  T
  12   -466.0443775 -0.187209E-07  0.904E-05    0.00      69.9  T
     SCC iter.                  ...        0 min,  3.158 sec
     gradient                   ...        0 min,  0.712 sec
 * total energy  :  -458.9994687 Eh     change       -0.8902283E-03 Eh
   gradient norm :     0.0132125 Eh/α   predicted    -0.8958683E-03 (   0.63%)
   displ. norm   :     0.5562554 α      lambda       -0.9681648E-03
   maximum displ.:     0.2316728 α      in ANC's #49, #48, #30, ...
 * RMSD in coord.:     0.5219004 α      energy gain  -0.2570880E+01 Eh

generating ANC from model Hessian ...
Using Lindh-Hessian (1995)
 Shifting diagonal of input Hessian by    1.0023382361224594E-002
 Lowest  eigenvalues of input Hessian
    0.010000    0.010006    0.010009    0.010010    0.010013    0.010014
    0.010018    0.010019    0.010021    0.000000    0.000000    0.000000
    0.000000    0.000000    0.000000    0.010048    0.010064    0.010073
 Highest eigenvalues
    2.369755    2.374874    2.377622    2.894343    2.896185    2.899683


........................................................................
.............................. CYCLE   21 ..............................
........................................................................
   1   -466.0397947 -0.466040E+03  0.309E-02    0.00       0.0  T
   2   -465.7402886  0.299506E+00  0.699E-01    0.12       1.0  T
   3   -466.0334962 -0.293208E+00  0.110E-01    0.01       1.0  T
   4   -466.0396321 -0.613584E-02  0.353E-02    0.00       1.0  T
   5   -466.0326598  0.697232E-02  0.105E-01    0.01       1.0  T
   6   -466.0402912 -0.763139E-02  0.965E-03    0.00       1.0  T
   7   -466.0403474 -0.562281E-04  0.116E-03    0.00       5.5  T
   8   -466.0403446  0.281855E-05  0.257E-03    0.00       2.5  T
   9   -466.0403480 -0.345858E-05  0.803E-04    0.00       7.9  T
  10   -466.0403476  0.418954E-06  0.118E-03    0.00       5.4  T
  11   -466.0403481 -0.533397E-06  0.706E-04    0.00       9.0  T
  12   -466.0403484 -0.276391E-06  0.189E-04    0.00      33.4  T
  13   -466.0403484 -0.207844E-07  0.308E-05    0.00     205.6  T
     SCC iter.                  ...        0 min,  3.420 sec
     gradient                   ...        0 min,  0.715 sec
 * total energy  :  -459.0001913 Eh     change       -0.7226396E-03 Eh
   gradient norm :     0.0129945 Eh/α   predicted     0.0000000E+00 (-100.00%)
   displ. norm   :     0.1410442 α      lambda       -0.4777294E-03
   maximum displ.:     0.0493388 α      in ANC's #51, #46, #29, ...

........................................................................
.............................. CYCLE   22 ..............................
........................................................................
   1   -466.0433162 -0.466043E+03  0.670E-03    0.00       0.0  T
   2   -466.0073259  0.359903E-01  0.235E-01    0.00       1.0  T
   3   -466.0430772 -0.357513E-01  0.197E-02    0.00       1.0  T
   4   -466.0428219  0.255271E-03  0.282E-02    0.00       1.0  T
   5   -466.0433336 -0.511649E-03  0.401E-03    0.00       1.6  T
   6   -466.0431750  0.158615E-03  0.174E-02    0.00       1.0  T
   7   -466.0433406 -0.165666E-03  0.214E-03    0.00       3.0  T
   8   -466.0433427 -0.206854E-05  0.109E-03    0.00       5.8  T
   9   -466.0433434 -0.669557E-06  0.182E-04    0.00      34.8  T
  10   -466.0433434 -0.132642E-07  0.116E-04    0.00      54.4  T
     SCC iter.                  ...        0 min,  2.631 sec
     gradient                   ...        0 min,  0.713 sec
 * total energy  :  -459.0004971 Eh     change       -0.3057910E-03 Eh
   gradient norm :     0.0070898 Eh/α   predicted    -0.2436337E-03 ( -20.33%)
   displ. norm   :     0.3152193 α      lambda       -0.6653686E-03
   maximum displ.:     0.1191493 α      in ANC's #51, #46, #21, ...

........................................................................
.............................. CYCLE   23 ..............................
........................................................................
   1   -466.0473277 -0.466047E+03  0.853E-03    0.00       0.0  T
   2   -466.0019519  0.453758E-01  0.272E-01    0.03       1.0  T
   3   -466.0473327 -0.453808E-01  0.751E-03    0.00       1.0  T
   4   -466.0421529  0.517978E-02  0.870E-02    0.01       1.0  T
   5   -466.0473158 -0.516285E-02  0.917E-03    0.00       1.0  T
   6   -466.0470723  0.243413E-03  0.228E-02    0.00       1.0  T
   7   -466.0473527 -0.280336E-03  0.515E-03    0.00       1.2  T
   8   -466.0473644 -0.116723E-04  0.270E-03    0.00       2.3  T
   9   -466.0473686 -0.422659E-05  0.440E-04    0.00      14.4  T
  10   -466.0473687 -0.748144E-07  0.257E-04    0.00      24.6  T
  11   -466.0473687 -0.446561E-07  0.421E-05    0.00     150.1  T
  12   -466.0473687 -0.916714E-09  0.151E-05    0.00     420.2  T
     SCC iter.                  ...        0 min,  3.159 sec
     gradient                   ...        0 min,  0.715 sec
 * total energy  :  -459.0008771 Eh     change       -0.3799376E-03 Eh
   gradient norm :     0.0093924 Eh/α   predicted    -0.3657445E-03 (  -3.74%)
   displ. norm   :     0.3214696 α      lambda       -0.4601995E-03
   maximum displ.:     0.0996711 α      in ANC's #51, #46, #21, ...

........................................................................
.............................. CYCLE   24 ..............................
........................................................................
   1   -466.0467592 -0.466047E+03  0.106E-02    0.00       0.0  T
   2   -465.9686334  0.781258E-01  0.358E-01    0.04       1.0  T
   3   -466.0468168 -0.781834E-01  0.390E-03    0.00       1.6  T
   4   -466.0442878  0.252904E-02  0.677E-02    0.01       1.0  T
   5   -466.0468138 -0.252601E-02  0.438E-03    0.00       1.4  T
   6   -466.0461684  0.645375E-03  0.305E-02    0.00       1.0  T
   7   -466.0468174 -0.648922E-03  0.375E-03    0.00       1.7  T
   8   -466.0468244 -0.707918E-05  0.167E-03    0.00       3.8  T
   9   -466.0468258 -0.133659E-05  0.726E-04    0.00       8.7  T
  10   -466.0468261 -0.291902E-06  0.216E-04    0.00      29.3  T
  11   -466.0468261 -0.287683E-07  0.111E-05    0.00     572.2  T
  12   -466.0468261 -0.781029E-10  0.427E-06    0.00    1480.4  T
     SCC iter.                  ...        0 min,  3.159 sec
     gradient                   ...        0 min,  0.713 sec
 * total energy  :  -459.0011850 Eh     change       -0.3079307E-03 Eh
   gradient norm :     0.0111671 Eh/α   predicted    -0.2539360E-03 ( -17.53%)
   displ. norm   :     0.4003810 α      lambda       -0.4473084E-03
   maximum displ.:     0.1172561 α      in ANC's #46, #21, #19, ...

........................................................................
.............................. CYCLE   25 ..............................
........................................................................
   1   -466.0421885 -0.466042E+03  0.154E-02    0.00       0.0  T
   2   -465.9086337  0.133555E+00  0.464E-01    0.04       1.0  T
   3   -466.0421578 -0.133524E+00  0.159E-02    0.00       1.0  T
   4   -466.0356355  0.652229E-02  0.982E-02    0.01       1.0  T
   5   -466.0423104 -0.667488E-02  0.616E-03    0.00       1.0  T
   6   -466.0420608  0.249542E-03  0.222E-02    0.00       1.0  T
   7   -466.0423320 -0.271201E-03  0.169E-03    0.00       3.7  T
   8   -466.0423331 -0.108797E-05  0.110E-03    0.00       5.8  T
   9   -466.0423336 -0.530716E-06  0.458E-04    0.00      13.8  T
  10   -466.0423337 -0.103167E-06  0.168E-04    0.00      37.6  T
  11   -466.0423337 -0.183614E-07  0.339E-05    0.00     186.8  T
     SCC iter.                  ...        0 min,  2.898 sec
     gradient                   ...        0 min,  0.714 sec
 * total energy  :  -459.0015098 Eh     change       -0.3247747E-03 Eh
   gradient norm :     0.0094933 Eh/α   predicted    -0.2595074E-03 ( -20.10%)
   displ. norm   :     0.5623306 α      lambda       -0.6437344E-03
   maximum displ.:     0.1639657 α      in ANC's #21, #46, #19, ...

........................................................................
.............................. CYCLE   26 ..............................
........................................................................
   1   -466.0343627 -0.466034E+03  0.239E-02    0.00       0.0  T
   2   -465.8444188  0.189944E+00  0.551E-01    0.03       1.0  T
   3   -466.0306501 -0.186231E+00  0.770E-02    0.00       1.0  T
   4   -466.0339485 -0.329835E-02  0.335E-02    0.00       1.0  T
   5   -466.0315600  0.238851E-02  0.750E-02    0.00       1.0  T
   6   -466.0346849 -0.312495E-02  0.699E-03    0.00       1.0  T
   7   -466.0347113 -0.263497E-04  0.235E-03    0.00       2.7  T
   8   -466.0347114 -0.109916E-06  0.236E-03    0.00       2.7  T
   9   -466.0347146 -0.317104E-05  0.910E-04    0.00       7.0  T
  10   -466.0347146 -0.672010E-07  0.839E-04    0.00       7.5  T
  11   -466.0347150 -0.411743E-06  0.286E-04    0.00      22.1  T
  12   -466.0347151 -0.352733E-07  0.167E-04    0.00      37.8  T
  13   -466.0347151 -0.147956E-07  0.731E-05    0.00      86.6  T
     SCC iter.                  ...        0 min,  3.417 sec
     gradient                   ...        0 min,  0.718 sec
 * total energy  :  -459.0018926 Eh     change       -0.3828264E-03 Eh
   gradient norm :     0.0093001 Eh/α   predicted    -0.4236556E-03 (  10.67%)
   displ. norm   :     0.4307628 α      lambda       -0.4459898E-03
   maximum displ.:     0.1317271 α      in ANC's #21, #19, #33, ...

........................................................................
.............................. CYCLE   27 ..............................
........................................................................
   1   -466.0337507 -0.466034E+03  0.165E-02    0.00       0.0  T
   2   -465.8892720  0.144479E+00  0.484E-01    0.04       1.0  T
   3   -466.0335006 -0.144229E+00  0.254E-02    0.00       1.0  T
   4   -466.0290680  0.443256E-02  0.847E-02    0.01       1.0  T
   5   -466.0305337 -0.146567E-02  0.757E-02    0.01       1.0  T
   6   -466.0339079 -0.337418E-02  0.224E-03    0.00       2.8  T
   7   -466.0339074  0.466887E-06  0.257E-03    0.00       2.5  T
   8   -466.0339093 -0.191405E-05  0.190E-03    0.00       3.3  T
   9   -466.0339113 -0.199887E-05  0.552E-04    0.00      11.5  T
  10   -466.0339115 -0.194381E-06  0.884E-05    0.00      71.5  T
  11   -466.0339115 -0.876184E-09  0.918E-05    0.00      68.9  T
     SCC iter.                  ...        0 min,  2.893 sec
     gradient                   ...        0 min,  0.713 sec
 * total energy  :  -459.0022323 Eh     change       -0.3396766E-03 Eh
   gradient norm :     0.0081789 Eh/α   predicted    -0.2643772E-03 ( -22.17%)
   displ. norm   :     0.5231871 α      lambda       -0.5098173E-03
   maximum displ.:     0.1674889 α      in ANC's #21, #19, #34, ...

........................................................................
.............................. CYCLE   28 ..............................
........................................................................
   1   -466.0364761 -0.466036E+03  0.100E-02    0.00       0.0  T
   2   -465.9723342  0.641419E-01  0.324E-01    0.03       1.0  T
   3   -466.0362599 -0.639257E-01  0.211E-02    0.00       1.0  T
   4   -466.0334804  0.277951E-02  0.722E-02    0.01       1.0  T
   5   -466.0353575 -0.187708E-02  0.418E-02    0.00       1.0  T
   6   -466.0365150 -0.115756E-02  0.507E-03    0.00       1.2  T
   7   -466.0365185 -0.345236E-05  0.446E-03    0.00       1.4  T
   8   -466.0365249 -0.635910E-05  0.314E-03    0.00       2.0  T
   9   -466.0365303 -0.543360E-05  0.104E-03    0.00       6.1  T
  10   -466.0365309 -0.651746E-06  0.213E-04    0.00      29.6  T
  11   -466.0365310 -0.294033E-07  0.348E-05    0.00     181.8  T
  12   -466.0365310 -0.332307E-09  0.262E-05    0.00     241.5  T
     SCC iter.                  ...        0 min,  3.156 sec
     gradient                   ...        0 min,  0.708 sec
 * total energy  :  -459.0025547 Eh     change       -0.3224404E-03 Eh
   gradient norm :     0.0075988 Eh/α   predicted    -0.3246841E-03 (   0.70%)
   displ. norm   :     0.5214832 α      lambda       -0.4731595E-03
   maximum displ.:     0.1717742 α      in ANC's #21, #19, #33, ...

........................................................................
.............................. CYCLE   29 ..............................
........................................................................
   1   -466.0382991 -0.466038E+03  0.310E-03    0.00       0.0  T
   2   -466.0361149  0.218421E-02  0.628E-02    0.01       1.0  T
   3   -466.0382214 -0.210649E-02  0.122E-02    0.00       1.0  T
   4   -466.0381137  0.107683E-03  0.169E-02    0.00       1.0  T
   5   -466.0382785 -0.164764E-03  0.637E-03    0.00       1.0  T
   6   -466.0380305  0.247959E-03  0.205E-02    0.00       1.0  T
   7   -466.0382965 -0.265982E-03  0.308E-03    0.00       2.1  T
   8   -466.0383019 -0.538361E-05  0.861E-04    0.00       7.3  T
   9   -466.0383022 -0.386267E-06  0.339E-04    0.00      18.7  T
  10   -466.0383023 -0.694016E-07  0.986E-05    0.00      64.2  T
  11   -466.0383023 -0.647270E-08  0.125E-05    0.00     505.1  T
     SCC iter.                  ...        0 min,  2.894 sec
     gradient                   ...        0 min,  0.720 sec
 * total energy  :  -459.0028428 Eh     change       -0.2880923E-03 Eh
   gradient norm :     0.0071711 Eh/α   predicted    -0.3009175E-03 (   4.45%)
   displ. norm   :     0.4812158 α      lambda       -0.2801381E-03
   maximum displ.:     0.1608364 α      in ANC's #21, #19, #34, ...

........................................................................
.............................. CYCLE   30 ..............................
........................................................................
   1   -466.0336647 -0.466034E+03  0.386E-03    0.00       0.0  T
   2   -466.0205943  0.130704E-01  0.140E-01    0.01       1.0  T
   3   -466.0334951 -0.129007E-01  0.164E-02    0.00       1.0  T
   4   -466.0335431 -0.480277E-04  0.150E-02    0.00       1.0  T
   5   -466.0333933  0.149775E-03  0.217E-02    0.00       1.0  T
   6   -466.0336692 -0.275934E-03  0.257E-03    0.00       2.5  T
   7   -466.0336718 -0.253900E-05  0.155E-03    0.00       4.1  T
   8   -466.0336728 -0.105503E-05  0.798E-04    0.00       7.9  T
   9   -466.0336732 -0.377217E-06  0.101E-04    0.00      62.3  T
  10   -466.0336732 -0.588409E-08  0.411E-05    0.00     153.8  T
     SCC iter.                  ...        0 min,  2.631 sec
     gradient                   ...        0 min,  0.710 sec
 * total energy  :  -459.0030665 Eh     change       -0.2237101E-03 Eh
   gradient norm :     0.0057835 Eh/α   predicted    -0.1725075E-03 ( -22.89%)
   displ. norm   :     0.4747035 α      lambda       -0.3077067E-03
   maximum displ.:     0.1648122 α      in ANC's #21, #19, #34, ...

........................................................................
.............................. CYCLE   31 ..............................
........................................................................
   1   -466.0353940 -0.466035E+03  0.163E-02    0.00       0.0  T
   2   -465.9033917  0.132002E+00  0.463E-01    0.04       1.0  T
   3   -466.0343721 -0.130980E+00  0.452E-02    0.00       1.0  T
   4   -466.0346712 -0.299079E-03  0.382E-02    0.00       1.0  T
   5   -466.0279810  0.669027E-02  0.105E-01    0.01       1.0  T
   6   -466.0355368 -0.755589E-02  0.391E-03    0.00       1.6  T
   7   -466.0355417 -0.488003E-05  0.274E-03    0.00       2.3  T
   8   -466.0355441 -0.234725E-05  0.197E-03    0.00       3.2  T
   9   -466.0355459 -0.186087E-05  0.819E-04    0.00       7.7  T
  10   -466.0355463 -0.395010E-06  0.771E-05    0.00      82.0  T
  11   -466.0355463  0.411006E-08  0.116E-04    0.00      54.7  T
     SCC iter.                  ...        0 min,  2.892 sec
     gradient                   ...        0 min,  0.709 sec
 * total energy  :  -459.0032890 Eh     change       -0.2224561E-03 Eh
   gradient norm :     0.0043009 Eh/α   predicted    -0.1885252E-03 ( -15.25%)
   displ. norm   :     0.4885087 α      lambda       -0.2096020E-03
   maximum displ.:     0.1729112 α      in ANC's #21, #19, #34, ...

........................................................................
.............................. CYCLE   32 ..............................
........................................................................
   1   -466.0327578 -0.466033E+03  0.103E-02    0.00       0.0  T
   2   -465.9407303  0.920275E-01  0.368E-01    0.03       1.0  T
   3   -466.0313661 -0.906358E-01  0.485E-02    0.00       1.0  T
   4   -466.0322560 -0.889922E-03  0.309E-02    0.00       1.0  T
   5   -466.0309513  0.130472E-02  0.567E-02    0.00       1.0  T
   6   -466.0328083 -0.185697E-02  0.545E-03    0.00       1.2  T
   7   -466.0328184 -0.101051E-04  0.353E-03    0.00       1.8  T
   8   -466.0328225 -0.410139E-05  0.236E-03    0.00       2.7  T
   9   -466.0328254 -0.286095E-05  0.836E-04    0.00       7.6  T
  10   -466.0328258 -0.412123E-06  0.351E-05    0.00     179.9  T
  11   -466.0328258 -0.481293E-09  0.247E-05    0.00     256.5  T
     SCC iter.                  ...        0 min,  2.891 sec
     gradient                   ...        0 min,  0.713 sec
 * total energy  :  -459.0034351 Eh     change       -0.1461226E-03 Eh
   gradient norm :     0.0052866 Eh/α   predicted    -0.1298165E-03 ( -11.16%)
   displ. norm   :     0.4671008 α      lambda       -0.2054169E-03
   maximum displ.:     0.1662043 α      in ANC's #21, #19, #34, ...

........................................................................
.............................. CYCLE   33 ..............................
........................................................................
   1   -466.0315447 -0.466032E+03  0.113E-02    0.00       0.0  T
   2   -465.9143363  0.117208E+00  0.412E-01    0.05       1.0  T
   3   -466.0305823 -0.116246E+00  0.413E-02    0.00       1.0  T
   4   -466.0305672  0.151198E-04  0.426E-02    0.00       1.0  T
   5   -466.0301065  0.460749E-03  0.511E-02    0.00       1.0  T
   6   -466.0316063 -0.149979E-02  0.614E-03    0.00       1.0  T
   7   -466.0316220 -0.157909E-04  0.332E-03    0.00       1.9  T
   8   -466.0316249 -0.285461E-05  0.248E-03    0.00       2.5  T
   9   -466.0316279 -0.296458E-05  0.107E-03    0.00       5.9  T
  10   -466.0316285 -0.659454E-06  0.116E-04    0.00      54.7  T
  11   -466.0316285 -0.702431E-08  0.543E-05    0.00     116.5  T
     SCC iter.                  ...        0 min,  2.895 sec
     gradient                   ...        0 min,  0.715 sec
 * total energy  :  -459.0035586 Eh     change       -0.1234951E-03 Eh
   gradient norm :     0.0059356 Eh/α   predicted    -0.1251209E-03 (   1.32%)
   displ. norm   :     0.3164033 α      lambda       -0.1537606E-03
   maximum displ.:     0.1147844 α      in ANC's #19, #21, #34, ...

........................................................................
.............................. CYCLE   34 ..............................
........................................................................
   1   -466.0362109 -0.466036E+03  0.791E-03    0.00       0.0  T
   2   -465.9775745  0.586363E-01  0.295E-01    0.02       1.0  T
   3   -466.0357104 -0.581359E-01  0.294E-02    0.00       1.0  T
   4   -466.0360453 -0.334957E-03  0.180E-02    0.00       1.0  T
   5   -466.0355447  0.500596E-03  0.352E-02    0.00       1.0  T
   6   -466.0362443 -0.699551E-03  0.352E-03    0.00       1.8  T
   7   -466.0362493 -0.497373E-05  0.207E-03    0.00       3.1  T
   8   -466.0362510 -0.170961E-05  0.118E-03    0.00       5.4  T
   9   -466.0362518 -0.823207E-06  0.149E-04    0.00      42.4  T
  10   -466.0362518 -0.129219E-07  0.252E-05    0.00     251.1  T
     SCC iter.                  ...        0 min,  2.628 sec
     gradient                   ...        0 min,  0.715 sec
 * total energy  :  -459.0036717 Eh     change       -0.1131328E-03 Eh
   gradient norm :     0.0041258 Eh/α   predicted    -0.8458108E-04 ( -25.24%)
   displ. norm   :     0.3773114 α      lambda       -0.1591691E-03
   maximum displ.:     0.1394905 α      in ANC's #19, #34, #21, ...

........................................................................
.............................. CYCLE   35 ..............................
........................................................................
   1   -466.0357173 -0.466036E+03  0.124E-02    0.00       0.0  T
   2   -465.9333507  0.102367E+00  0.408E-01    0.04       1.0  T
   3   -466.0357817 -0.102431E+00  0.715E-03    0.00       1.0  T
   4   -466.0291998  0.658191E-02  0.104E-01    0.01       1.0  T
   5   -466.0352442 -0.604448E-02  0.293E-02    0.00       1.0  T
   6   -466.0357874 -0.543207E-03  0.617E-03    0.00       1.0  T
   7   -466.0358111 -0.236792E-04  0.117E-03    0.00       5.4  T
   8   -466.0358111 -0.884199E-09  0.118E-03    0.00       5.4  T
   9   -466.0358119 -0.816046E-06  0.375E-04    0.00      16.9  T
  10   -466.0358120 -0.907482E-07  0.214E-05    0.00     295.6  T
  11   -466.0358120  0.994760E-10  0.266E-05    0.00     237.6  T
     SCC iter.                  ...        0 min,  2.888 sec
     gradient                   ...        0 min,  0.763 sec
 * total energy  :  -459.0037869 Eh     change       -0.1151788E-03 Eh
   gradient norm :     0.0040117 Eh/α   predicted    -0.9091583E-04 ( -21.07%)
   displ. norm   :     0.3552175 α      lambda       -0.1500207E-03
   maximum displ.:     0.1264118 α      in ANC's #19, #34, #33, ...

........................................................................
.............................. CYCLE   36 ..............................
........................................................................
   1   -466.0388075 -0.466039E+03  0.595E-03    0.00       0.0  T
   2   -466.0136992  0.251083E-01  0.204E-01    0.01       1.0  T
   3   -466.0387202 -0.250210E-01  0.133E-02    0.00       1.0  T
   4   -466.0382088  0.511438E-03  0.311E-02    0.00       1.0  T
   5   -466.0375282  0.680558E-03  0.450E-02    0.00       1.0  T
   6   -466.0388257 -0.129753E-02  0.187E-03    0.00       3.4  T
   7   -466.0388276 -0.188787E-05  0.869E-04    0.00       7.3  T
   8   -466.0388279 -0.238076E-06  0.640E-04    0.00       9.9  T
   9   -466.0388281 -0.231661E-06  0.235E-04    0.00      27.0  T
  10   -466.0388281 -0.332204E-07  0.605E-05    0.00     104.5  T
  11   -466.0388281 -0.185656E-08  0.271E-05    0.00     233.4  T
     SCC iter.                  ...        0 min,  2.889 sec
     gradient                   ...        0 min,  0.714 sec
 * total energy  :  -459.0038767 Eh     change       -0.8983795E-04 Eh
   gradient norm :     0.0055754 Eh/α   predicted    -0.8447815E-04 (  -5.97%)
   displ. norm   :     0.3457073 α      lambda       -0.1375260E-03
   maximum displ.:     0.1223527 α      in ANC's #34, #19, #33, ...

........................................................................
.............................. CYCLE   37 ..............................
........................................................................
   1   -466.0394597 -0.466039E+03  0.752E-03    0.00       0.0  T
   2   -465.9974859  0.419739E-01  0.256E-01    0.00       1.0  T
   3   -466.0389635 -0.414776E-01  0.282E-02    0.00       1.0  T
   4   -466.0390470 -0.834632E-04  0.265E-02    0.00       1.0  T
   5   -466.0379162  0.113075E-02  0.519E-02    0.00       1.0  T
   6   -466.0394928 -0.157659E-02  0.648E-04    0.00       9.8  T
   7   -466.0394928  0.521727E-07  0.689E-04    0.00       9.2  T
   8   -466.0394931 -0.293926E-06  0.300E-04    0.00      21.1  T
   9   -466.0394931 -0.417889E-07  0.801E-05    0.00      78.9  T
  10   -466.0394931 -0.221411E-08  0.473E-05    0.00     133.8  T
     SCC iter.                  ...        0 min,  2.629 sec
     gradient                   ...        0 min,  0.714 sec
 * total energy  :  -459.0039494 Eh     change       -0.7265069E-04 Eh
   gradient norm :     0.0056208 Eh/α   predicted    -0.7698286E-04 (   5.96%)
   displ. norm   :     0.2323121 α      lambda       -0.8024152E-04
   maximum displ.:     0.0902655 α      in ANC's #34, #33, #19, ...

........................................................................
.............................. CYCLE   38 ..............................
........................................................................
   1   -466.0357036 -0.466036E+03  0.107E-02    0.00       0.0  T
   2   -465.9589154  0.767881E-01  0.355E-01    0.04       1.0  T
   3   -466.0357003 -0.767849E-01  0.108E-02    0.00       1.0  T
   4   -466.0317313  0.396895E-02  0.853E-02    0.01       1.0  T
   5   -466.0357243 -0.399296E-02  0.806E-03    0.00       1.0  T
   6   -466.0357272 -0.293021E-05  0.779E-03    0.00       1.0  T
   7   -466.0357683 -0.410374E-04  0.140E-03    0.00       4.5  T
   8   -466.0357691 -0.828331E-06  0.837E-04    0.00       7.6  T
   9   -466.0357695 -0.401279E-06  0.219E-04    0.00      28.9  T
  10   -466.0357695 -0.293275E-07  0.331E-05    0.00     190.9  T
  11   -466.0357695 -0.548141E-09  0.201E-05    0.00     314.7  T
     SCC iter.                  ...        0 min,  2.894 sec
     gradient                   ...        0 min,  0.712 sec
 * total energy  :  -459.0040040 Eh     change       -0.5457874E-04 Eh
   gradient norm :     0.0038192 Eh/α   predicted    -0.4228884E-04 ( -22.52%)
   displ. norm   :     0.1718956 α      lambda       -0.7871332E-04
   maximum displ.:     0.0566209 α      in ANC's #34, #46, #33, ...

........................................................................
.............................. CYCLE   39 ..............................
........................................................................
   1   -466.0382399 -0.466038E+03  0.185E-02    0.00       0.0  T
   2   -465.8689134  0.169326E+00  0.526E-01    0.06       1.0  T
   3   -466.0371763 -0.168263E+00  0.429E-02    0.00       1.0  T
   4   -466.0357927  0.138366E-02  0.615E-02    0.01       1.0  T
   5   -466.0374803 -0.168767E-02  0.417E-02    0.00       1.0  T
   6   -466.0384376 -0.957320E-03  0.296E-03    0.00       2.1  T
   7   -466.0384415 -0.387081E-05  0.150E-03    0.00       4.2  T
   8   -466.0384414  0.130863E-06  0.158E-03    0.00       4.0  T
   9   -466.0384428 -0.145794E-05  0.560E-04    0.00      11.3  T
  10   -466.0384430 -0.185376E-06  0.149E-04    0.00      42.4  T
  11   -466.0384430 -0.453650E-08  0.124E-04    0.00      51.1  T
     SCC iter.                  ...        0 min,  2.886 sec
     gradient                   ...        0 min,  0.716 sec
 * total energy  :  -459.0040386 Eh     change       -0.3466293E-04 Eh
   gradient norm :     0.0035192 Eh/α   predicted    -0.4052369E-04 (  16.91%)
   displ. norm   :     0.1437472 α      lambda       -0.3751104E-04
   maximum displ.:     0.0583697 α      in ANC's #34, #33, #19, ...

........................................................................
.............................. CYCLE   40 ..............................
........................................................................
   1   -466.0374374 -0.466037E+03  0.328E-03    0.00       0.0  T
   2   -466.0283812  0.905614E-02  0.119E-01    0.00       1.0  T
   3   -466.0373682 -0.898696E-02  0.107E-02    0.00       1.0  T
   4   -466.0373111  0.570721E-04  0.143E-02    0.00       1.0  T
   5   -466.0372079  0.103266E-03  0.202E-02    0.00       1.0  T
   6   -466.0374434 -0.235506E-03  0.936E-04    0.00       6.8  T
   7   -466.0374437 -0.308936E-06  0.573E-04    0.00      11.0  T
   8   -466.0374438 -0.150585E-06  0.300E-04    0.00      21.0  T
   9   -466.0374439 -0.469008E-07  0.914E-05    0.00      69.2  T
  10   -466.0374439 -0.469953E-08  0.324E-05    0.00     195.0  T
     SCC iter.                  ...        0 min,  2.628 sec
     gradient                   ...        0 min,  0.711 sec
 * total energy  :  -459.0040576 Eh     change       -0.1901609E-04 Eh
   gradient norm :     0.0032053 Eh/α   predicted    -0.1914644E-04 (   0.69%)
   displ. norm   :     0.1229512 α      lambda       -0.2858102E-04
   maximum displ.:     0.0517369 α      in ANC's #33, #34, #19, ...

........................................................................
.............................. CYCLE   41 ..............................
........................................................................
   1   -466.0352629 -0.466035E+03  0.532E-03    0.00       0.0  T
   2   -466.0126129  0.226500E-01  0.191E-01    0.01       1.0  T
   3   -466.0351291 -0.225162E-01  0.151E-02    0.00       1.0  T
   4   -466.0349636  0.165556E-03  0.219E-02    0.00       1.0  T
   5   -466.0344563  0.507328E-03  0.372E-02    0.00       1.0  T
   6   -466.0352787 -0.822472E-03  0.127E-03    0.00       5.0  T
   7   -466.0352792 -0.520580E-06  0.936E-04    0.00       6.8  T
   8   -466.0352796 -0.335930E-06  0.560E-04    0.00      11.3  T
   9   -466.0352798 -0.184888E-06  0.650E-05    0.00      97.2  T
  10   -466.0352798 -0.297626E-08  0.233E-05    0.00     270.9  T
     SCC iter.                  ...        0 min,  2.631 sec
     gradient                   ...        0 min,  0.708 sec
 * total energy  :  -459.0040740 Eh     change       -0.1637515E-04 Eh
   gradient norm :     0.0028009 Eh/α   predicted    -0.1451123E-04 ( -11.38%)
   displ. norm   :     0.1006385 α      lambda       -0.3167816E-04
   maximum displ.:     0.0399750 α      in ANC's #34, #33, #19, ...

........................................................................
.............................. CYCLE   42 ..............................
........................................................................
   1   -466.0376676 -0.466038E+03  0.717E-03    0.00       0.0  T
   2   -465.9991995  0.384681E-01  0.252E-01    0.02       1.0  T
   3   -466.0376391 -0.384396E-01  0.986E-03    0.00       1.0  T
   4   -466.0362955  0.134362E-02  0.485E-02    0.01       1.0  T
   5   -466.0369466 -0.651149E-03  0.335E-02    0.00       1.0  T
   6   -466.0376971 -0.750455E-03  0.895E-04    0.00       7.1  T
   7   -466.0376962  0.829463E-06  0.147E-03    0.00       4.3  T
   8   -466.0376971 -0.861097E-06  0.910E-04    0.00       7.0  T
   9   -466.0376976 -0.485316E-06  0.144E-04    0.00      43.8  T
  10   -466.0376976 -0.127162E-07  0.450E-05    0.00     140.7  T
     SCC iter.                  ...        0 min,  2.626 sec
     gradient                   ...        0 min,  0.713 sec
 * total energy  :  -459.0040937 Eh     change       -0.1963983E-04 Eh
   gradient norm :     0.0023814 Eh/α   predicted    -0.1600269E-04 ( -18.52%)
   displ. norm   :     0.1489325 α      lambda       -0.2982427E-04
   maximum displ.:     0.0604190 α      in ANC's #34, #33, #19, ...
 * RMSD in coord.:     0.4074729 α      energy gain  -0.4624966E-02 Eh

generating ANC from model Hessian ...
Using Lindh-Hessian (1995)
 Shifting diagonal of input Hessian by    1.0022750962936576E-002
 Lowest  eigenvalues of input Hessian
    0.010000    0.010005    0.010006    0.010009    0.010013    0.010014
    0.010018    0.010018    0.010020    0.000000    0.000000    0.000000
    0.000000    0.000000    0.000000    0.010046    0.010060    0.010079
 Highest eigenvalues
    2.364812    2.365952    2.366613    2.885454    2.887731    2.888692


........................................................................
.............................. CYCLE   43 ..............................
........................................................................
   1   -466.0399374 -0.466040E+03  0.539E-03    0.00       0.0  T
   2   -466.0181345  0.218029E-01  0.190E-01    0.02       1.0  T
   3   -466.0399191 -0.217846E-01  0.750E-03    0.00       1.0  T
   4   -466.0387586  0.116050E-02  0.440E-02    0.00       1.0  T
   5   -466.0396099 -0.851276E-03  0.231E-02    0.00       1.0  T
   6   -466.0399506 -0.340741E-03  0.219E-03    0.00       2.9  T
   7   -466.0399528 -0.219108E-05  0.131E-03    0.00       4.8  T
   8   -466.0399535 -0.659440E-06  0.851E-04    0.00       7.4  T
   9   -466.0399539 -0.446075E-06  0.141E-04    0.00      44.9  T
[...]

      molecular mass/u    :     2458.4631792
   center of mass at/Å    :       68.2170168      -0.0207667       0.0060955
  moments of inertia/u·Å² :        0.5433697E+05   0.5515294E+06   0.6030147E+06
rotational constants/cm⁻¹ :        0.3102424E-03   0.3056525E-04   0.2795559E-04

 * 240 selected distances

     #   Z          #   Z                                           value/Å
     2   6 C        3   6 C                                       1.3865578
     3   6 C        4   6 C                                       1.4350773
     4   6 C        5   6 C                                       1.3558260
     5   6 C        6   6 C                                       1.4379634
     3   6 C        7   7 N                                       1.3660005
     6   6 C        7   7 N                                       1.3650220
     6   6 C        8   6 C                                       1.3967322
     9   6 C       10   6 C                                       1.3980590
    10   6 C       11   6 C                                       1.3815075
    11   6 C       12   6 C                                       1.3988416
    13   6 C       14   8 O                                       1.2044625
    12   6 C       15   6 C                                       1.3969564
     9   6 C       16   6 C                                       1.3974133
    15   6 C       16   6 C                                       1.3836204
     8   6 C       17   6 C                                       1.3963266
    17   6 C       18   6 C                                       1.4355260
    18   6 C       19   6 C                                       1.3570150
    17   6 C       20   7 N                                       1.3696416
    19   6 C       21   6 C                                       1.4321201
    20   7 N       21   6 C                                       1.3610737
    21   6 C       22   6 C                                       1.4057917
    22   6 C       23   6 C                                       1.4056416
    23   6 C       24   6 C                                       1.4320271
    24   6 C       25   6 C                                       1.3570313
    25   6 C       26   6 C                                       1.4356032
    23   6 C       27   7 N                                       1.3612320
    26   6 C       27   7 N                                       1.3696838
    26   6 C       28   6 C                                       1.3965305
    29   6 C       30   6 C                                       1.3975145
    30   6 C       31   6 C                                       1.3836218
    31   6 C       32   6 C                                       1.3969247
    33   6 C       34   8 O                                       1.2043922
    32   6 C       35   6 C                                       1.3988602
    29   6 C       36   6 C                                       1.3982311
    35   6 C       36   6 C                                       1.3814430
    28   6 C       37   6 C                                       1.3970512
    37   6 C       38   6 C                                       1.4380360
    38   6 C       39   6 C                                       1.3558102
     2   6 C       40   6 C                                       1.3865622
    39   6 C       40   6 C                                       1.4350059
    37   6 C       41   7 N                                       1.3650155
    40   6 C       41   7 N                                       1.3660554
     2   6 C       42   1 H                                       1.0850783
     4   6 C       43   1 H                                       1.0785675
     5   6 C       44   1 H                                       1.0781210
    10   6 C       45   1 H                                       1.0841726
    11   6 C       46   1 H                                       1.0847281
    15   6 C       48   1 H                                       1.0851769
    16   6 C       49   1 H                                       1.0842226
    18   6 C       50   1 H                                       1.0779180
    19   6 C       51   1 H                                       1.0782039
    24   6 C       52   1 H                                       1.0782206
    25   6 C       53   1 H                                       1.0779029
    30   6 C       54   1 H                                       1.0842360
    31   6 C       55   1 H                                       1.0851913
    35   6 C       57   1 H                                       1.0847238
    36   6 C       58   1 H                                       1.0841676
    38   6 C       59   1 H                                       1.0780842
    39   6 C       60   1 H                                       1.0785603
    62   6 C       63   6 C                                       1.3865526
    63   6 C       64   6 C                                       1.4350239
    64   6 C       65   6 C                                       1.3558217
    65   6 C       66   6 C                                       1.4379963
    63   6 C       67   7 N                                       1.3660236
    66   6 C       67   7 N                                       1.3650433
    66   6 C       68   6 C                                       1.3968570
    69   6 C       70   6 C                                       1.3982101
    70   6 C       71   6 C                                       1.3814183
    71   6 C       72   6 C                                       1.3989101
    73   6 C       74   8 O                                       1.2044106
    72   6 C       75   6 C                                       1.3969276
    69   6 C       76   6 C                                       1.3974798
    75   6 C       76   6 C                                       1.3836272
    68   6 C       77   6 C                                       1.3965437
    77   6 C       78   6 C                                       1.4355624
    78   6 C       79   6 C                                       1.3570539
    77   6 C       80   7 N                                       1.3694984
    79   6 C       81   6 C                                       1.4320192
    80   7 N       81   6 C                                       1.3611456
    81   6 C       82   6 C                                       1.4057668
    82   6 C       83   6 C                                       1.4055294
    83   6 C       84   6 C                                       1.4320455
    84   6 C       85   6 C                                       1.3570045
    85   6 C       86   6 C                                       1.4356930
    83   6 C       87   7 N                                       1.3612821
    86   6 C       87   7 N                                       1.3696508
    86   6 C       88   6 C                                       1.3965665
    89   6 C       90   6 C                                       1.3975681
    90   6 C       91   6 C                                       1.3836013
    91   6 C       92   6 C                                       1.3969301
    93   6 C       94   8 O                                       1.2043181
    92   6 C       95   6 C                                       1.3988496
    89   6 C       96   6 C                                       1.3982208
    95   6 C       96   6 C                                       1.3814757
    88   6 C       97   6 C                                       1.3971561
    97   6 C       98   6 C                                       1.4381083 (max)
    98   6 C       99   6 C                                       1.3557791
    62   6 C      100   6 C                                       1.3865256
    99   6 C      100   6 C                                       1.4349929
    97   6 C      101   7 N                                       1.3649592
   100   6 C      101   7 N                                       1.3660684
    62   6 C      102   1 H                                       1.0850895
    64   6 C      103   1 H                                       1.0785661
    65   6 C      104   1 H                                       1.0781044
    70   6 C      105   1 H                                       1.0841645
    71   6 C      106   1 H                                       1.0847060
    75   6 C      108   1 H                                       1.0851912
    76   6 C      109   1 H                                       1.0842161
    78   6 C      110   1 H                                       1.0779135
    79   6 C      111   1 H                                       1.0782119
    84   6 C      112   1 H                                       1.0782081
    85   6 C      113   1 H                                       1.0778911
    90   6 C      114   1 H                                       1.0842526
    91   6 C      115   1 H                                       1.0852009
    95   6 C      117   1 H                                       1.0847238
    96   6 C      118   1 H                                       1.0841671
    98   6 C      119   1 H                                       1.0780638
    99   6 C      120   1 H                                       1.0785611
   121   6 C      122   6 C                                       1.2218769
   123   6 C      124   6 C                                       1.2218999
   125   6 C      126   6 C                                       1.2221029
   127   6 C      128   6 C                                       1.2222319
   129   6 C      130   6 C                                       1.2218388
   131   6 C      132   6 C                                       1.2217293
   134   6 C      135   6 C                                       1.4063419
   135   6 C      136   6 C                                       1.4319356
   136   6 C      137   6 C                                       1.3573408
   137   6 C      138   6 C                                       1.4353063
   135   6 C      139   7 N                                       1.3605751
   138   6 C      139   7 N                                       1.3692711
   138   6 C      140   6 C                                       1.3968969
   141   6 C      142   6 C                                       1.3983237
   142   6 C      143   6 C                                       1.3814260
   143   6 C      144   6 C                                       1.3988548
   145   6 C      146   8 O                                       1.2043492
   144   6 C      147   6 C                                       1.3969568
   141   6 C      148   6 C                                       1.3977657
   147   6 C      148   6 C                                       1.3834624
   140   6 C      149   6 C                                       1.3969384
   149   6 C      150   6 C                                       1.4353214
   150   6 C      151   6 C                                       1.3573154
   149   6 C      152   7 N                                       1.3693083
   151   6 C      153   6 C                                       1.4318858
   152   7 N      153   6 C                                       1.3604869
   153   6 C      154   6 C                                       1.4063968
   154   6 C      155   6 C                                       1.4064862
   155   6 C      156   6 C                                       1.4318166
   156   6 C      157   6 C                                       1.3574240
   157   6 C      158   6 C                                       1.4352243
   155   6 C      159   7 N                                       1.3604399
   158   6 C      159   7 N                                       1.3693736
   158   6 C      160   6 C                                       1.3968933
   161   6 C      162   6 C                                       1.3977029
   162   6 C      163   6 C                                       1.3835079
   163   6 C      164   6 C                                       1.3969607
   165   6 C      166   8 O                                       1.2044136
   164   6 C      167   6 C                                       1.3988081
   161   6 C      168   6 C                                       1.3983027
   167   6 C      168   6 C                                       1.3814641
   160   6 C      169   6 C                                       1.3968747
   169   6 C      170   6 C                                       1.4354677
   170   6 C      171   6 C                                       1.3572713
   134   6 C      172   6 C                                       1.4062114
   171   6 C      172   6 C                                       1.4319316
   169   6 C      173   7 N                                       1.3691857
   172   6 C      173   7 N                                       1.3606250
   136   6 C      174   1 H                                       1.0782131
   137   6 C      175   1 H                                       1.0779402
   142   6 C      176   1 H                                       1.0841596
   143   6 C      177   1 H                                       1.0847105
   147   6 C      179   1 H                                       1.0851594
   148   6 C      180   1 H                                       1.0842229
   150   6 C      181   1 H                                       1.0778824
   151   6 C      182   1 H                                       1.0782262
   156   6 C      183   1 H                                       1.0782069
   157   6 C      184   1 H                                       1.0779083
   162   6 C      185   1 H                                       1.0842428
   163   6 C      186   1 H                                       1.0851462
   167   6 C      188   1 H                                       1.0847294
   168   6 C      189   1 H                                       1.0841659
   170   6 C      190   1 H                                       1.0778799
   171   6 C      191   1 H                                       1.0782126
   193   6 C      194   6 C                                       1.4063889
   194   6 C      195   6 C                                       1.4318861
   195   6 C      196   6 C                                       1.3573400
   196   6 C      197   6 C                                       1.4352760
   194   6 C      198   7 N                                       1.3605516
   197   6 C      198   7 N                                       1.3693214
   197   6 C      199   6 C                                       1.3969105
   200   6 C      201   6 C                                       1.3982101
   201   6 C      202   6 C                                       1.3815204
   202   6 C      203   6 C                                       1.3987915
   204   6 C      205   8 O                                       1.2042491
   203   6 C      206   6 C                                       1.3969282
   200   6 C      207   6 C                                       1.3977344
   206   6 C      207   6 C                                       1.3834777
   199   6 C      208   6 C                                       1.3968362
   208   6 C      209   6 C                                       1.4354718
   209   6 C      210   6 C                                       1.3572263
   208   6 C      211   7 N                                       1.3692675
   210   6 C      212   6 C                                       1.4319396
   211   7 N      212   6 C                                       1.3605656
   212   6 C      213   6 C                                       1.4061201
   213   6 C      214   6 C                                       1.4062708
   214   6 C      215   6 C                                       1.4318850
   215   6 C      216   6 C                                       1.3573643
   216   6 C      217   6 C                                       1.4353192
   214   6 C      218   7 N                                       1.3606312
   217   6 C      218   7 N                                       1.3691627
   217   6 C      219   6 C                                       1.3969222
   220   6 C      221   6 C                                       1.3977584
   221   6 C      222   6 C                                       1.3834601
   222   6 C      223   6 C                                       1.3969857
   224   6 C      225   8 O                                       1.2044293
   223   6 C      226   6 C                                       1.3988392
   220   6 C      227   6 C                                       1.3982022
   226   6 C      227   6 C                                       1.3815449
   219   6 C      228   6 C                                       1.3967833
   228   6 C      229   6 C                                       1.4353720
   229   6 C      230   6 C                                       1.3573139
   193   6 C      231   6 C                                       1.4065236
   230   6 C      231   6 C                                       1.4319264
   228   6 C      232   7 N                                       1.3693430
   231   6 C      232   7 N                                       1.3603403
   195   6 C      233   1 H                                       1.0782278
   196   6 C      234   1 H                                       1.0779338
   201   6 C      235   1 H                                       1.0841374
   202   6 C      236   1 H                                       1.0847267
   206   6 C      238   1 H                                       1.0851676
   207   6 C      239   1 H                                       1.0842449
   209   6 C      240   1 H                                       1.0778738 (min)
   210   6 C      241   1 H                                       1.0782222
   215   6 C      242   1 H                                       1.0781998
   216   6 C      243   1 H                                       1.0779248
   221   6 C      244   1 H                                       1.0842206
   222   6 C      245   1 H                                       1.0851621
   226   6 C      247   1 H                                       1.0847152
   227   6 C      248   1 H                                       1.0841433
   229   6 C      249   1 H                                       1.0778825
   230   6 C      250   1 H                                       1.0782059

 * 4 distinct bonds (by element types)

   Z      Z             #   av. dist./Å        max./Å        min./Å
   1 H    6 C          66     1.0814621     1.0852009     1.0778738
   6 C    6 C         134     1.3922692     1.4381083     1.2217293
   6 C    7 N          32     1.3651826     1.3696838     1.3603403
   6 C    8 O           8     1.2043781     1.2044625     1.2042491


optimized geometry written to: xtbopt.xyz


           -------------------------------------------------
          | TOTAL ENERGY             -459.004194837964 Eh   |
          | GRADIENT NORM               0.000901161561 Eh/α |
          | HOMO-LUMO GAP               0.000034863799 eV   |
           -------------------------------------------------

------------------------------------------------------------------------
 * finished run on 2022/07/30 at 06:21:02.749     
------------------------------------------------------------------------
 total:
 * wall-time:     0 d,  0 h,  4 min, 12.040 sec
 *  cpu-time:     0 d,  0 h,  4 min, 10.888 sec
 * ratio c/w:     0.995 speedup
 SCF:
 * wall-time:     0 d,  0 h,  0 min, 16.514 sec
 *  cpu-time:     0 d,  0 h,  0 min, 16.435 sec
 * ratio c/w:     0.995 speedup
 ANC optimizer:
 * wall-time:     0 d,  0 h,  3 min, 55.231 sec
 *  cpu-time:     0 d,  0 h,  3 min, 54.164 sec
 * ratio c/w:     0.995 speedup

