201
 energy: -385.376609921437 gnorm: 1.513020280325 xtb: 6.5.1 (b24c23e)
Ni          30.11848100000000        0.01260100000000        0.00082200000000
C           26.70045700000000       -0.09441400000000        0.09004200000000
C           27.36574900000000       -0.19600800000000        1.24417500000000
C           26.71788700000000       -0.33853700000000        2.54275900000000
C           27.66001200000000       -0.35955200000000        3.46720300000000
C           28.96305000000000       -0.22930200000000        2.80138000000000
N           28.78357100000000       -0.13063900000000        1.38831300000000
C           30.15220700000000       -0.15837100000000        3.43250600000000
C           31.44369200000000        0.00129900000000        2.71492300000000
C           32.73041800000000        0.21812100000000        3.38742900000000
C           33.66490300000000        0.27573400000000        2.46065500000000
N           31.58622799999999       -0.07722900000000        1.42712500000000
C           32.98335200000000        0.08862500000000        1.18552700000000
C           33.57967800000000        0.00815500000000       -0.01538800000000
C           32.82194000000000       -0.20189600000000       -1.27010200000000
C           33.36504700000000       -0.61450300000000       -2.40856400000000
C           32.32124900000000       -0.60278900000000       -3.41414400000000
C           31.20907700000000       -0.17966500000000       -2.82474200000000
C           29.92108000000000        0.04332800000000       -3.53091000000000
C           29.93886600000000        0.17926900000000       -5.00789900000000
C           29.29572300000000       -0.76774500000000       -5.81889800000000
C           29.33118400000000       -0.64532500000000       -7.21070900000000
C           30.01750200000000        0.42329100000000       -7.81521100000000
C           30.05855300000000        0.55733500000000       -9.28804700000000
O           30.74255100000000        1.61745600000000       -9.87763800000000
O           29.47542800000000       -0.28542800000000      -10.02263200000000
C           30.66864700000000        1.36411900000000       -6.99867400000000
C           30.63166500000000        1.24085400000000       -5.60686700000000
C           28.75456200000000        0.12657800000000       -2.86277600000000
C           27.43892800000000        0.37880500000000       -3.44840900000000
C           26.57748399999999        0.32960400000000       -2.45101500000000
C           27.33366300000000        0.05974000000000       -1.22940700000000
N           28.60364300000000       -0.05995400000000       -1.45698100000000
N           31.43472800000000        0.09228900000000       -1.44014700000000
C           30.19195600000000       -0.23005000000000        4.90834100000000
C           30.12773300000000       -1.47102300000000        5.55539400000000
C           30.16704900000000       -1.53949500000000        6.95091200000000
C           30.27241500000000       -0.36580200000000        7.71967100000000
C           30.31495600000000       -0.43257100000000        9.19701500000000
O           30.41814000000000        0.73449600000000        9.94971900000000
O           30.25838000000000       -1.54491300000000        9.78804400000000
C           30.33726000000000        0.87597300000000        7.06327400000000
C           30.29722400000000        0.94261300000000        5.66765400000000
H           25.61721000000000       -0.11304000000000        0.11821900000000
H           25.65444700000000       -0.40676600000000        2.73297700000000
H           27.47590300000000       -0.44635000000000        4.53028000000000
H           32.90541300000000        0.31096900000000        4.45110400000000
H           34.72124400000000        0.42095000000000        2.64359100000000
H           34.39845600000000       -0.88960000000000       -2.57143100000000
H           32.43810100000000       -0.86866100000000       -4.45678400000000
H           28.76995200000000       -1.60274400000000       -5.37208200000000
H           28.82388100000000       -1.38881300000000       -7.81268900000000
H           30.77679400000000        1.71861500000000      -10.88503600000000
H           31.20807200000000        2.19587200000000       -7.43391900000000
H           31.14075700000000        1.97515500000000       -4.99445900000000
H           27.19193900000000        0.57280900000000       -4.48384800000000
H           25.50820500000000        0.47271600000000       -2.53530900000000
H           30.04704600000000       -2.38407700000000        4.97824100000000
H           30.11533000000000       -2.51059800000000        7.42711400000000
H           30.44806400000000        0.70003700000000       10.96173900000000
H           30.41906200000000        1.79678700000000        7.62684800000000
H           30.34854100000000        1.90728000000000        5.17766400000000
Ni          68.75153600000000        0.01444000000000       -0.03097700000000
C           72.16955999999999       -0.08157300000000       -0.13194200000000
C           71.50426800000000       -0.04940400000000       -1.29009100000000
C           72.15213000000000       -0.04124000000000       -2.59644900000000
C           71.21000500000000        0.04448400000000       -3.51714900000000
C           69.90696699999999        0.09708800000000       -2.84074800000000
N           70.08644600000000        0.03215000000000       -1.42573000000000
C           68.71781000000000        0.24032100000000       -3.45948500000000
C           67.42632500000001        0.31618100000000       -2.72827700000000
C           66.13959900000000        0.60910400000000       -3.37129400000000
C           65.20511399999999        0.55946600000000       -2.44405900000000
N           67.28378900000000        0.08967900000000       -1.45812400000000
C           65.88666600000001        0.22656800000000       -1.19901300000000
C           65.29033900000000        0.00815500000000       -0.01538800000000
C           66.04807700000001       -0.34517800000000        1.20673500000000
C           65.50497000000000       -0.88631000000000        2.29002400000000
C           66.54876800000000       -0.99062900000000        3.29024800000000
C           67.66094000000000       -0.50236300000000        2.75356800000000
C           68.94893700000000       -0.36228700000000        3.48073900000000
C           68.93115100000000       -0.39756600000000        4.96355100000000
C           69.57429399999999       -1.43178100000000        5.65993900000000
C           69.53883300000000       -1.47066900000000        7.05658200000000
C           68.85251500000000       -0.47888800000000        7.78027500000000
C           68.81146400000000       -0.51557300000000        9.25874400000000
O           68.12746599999998        0.46949000000000        9.96664500000000
O           69.39458900000000       -1.43742000000000        9.89124800000000
C           68.20137099999999        0.54982000000000        7.07767300000000
C           68.23835200000001        0.58786900000000        5.68093700000000
C           70.11545500000000       -0.20254900000000        2.82666100000000
C           71.43108900000000       -0.01953500000000        3.43747300000000
C           72.29253300000001        0.04660400000000        2.44105900000000
C           71.53635400000000       -0.08059500000000        1.19648100000000
N           70.26637400000000       -0.22573200000000        1.40873500000000
N           67.43528900000000       -0.07256400000000        1.40956800000000
C           68.67806099999999        0.33930200000000       -4.93374100000000
C           68.74228400000000       -0.81878100000000       -5.71957600000000
C           68.70296799999998       -0.72587600000000       -7.11368000000000
C           68.59760199999999        0.52863400000000       -7.74197100000000
C           68.55506099999998        0.63266500000000       -9.21715900000000
O           68.45187700000000        1.87874200000000       -9.83026600000000
O           68.61163700000000       -0.40410400000000       -9.93251200000000
C           68.53275700000000        1.68643500000000       -6.94676100000000
C           68.57279300000000        1.59170000000000       -5.55276700000000
H           73.25280699999999       -0.09682500000000       -0.16207900000000
H           73.21556999999999       -0.08708000000000       -2.79326500000000
H           71.39411399999999        0.08085000000000       -4.58314300000000
H           65.96460399999999        0.82398800000000       -4.41716800000000
H           64.14877300000001        0.72480700000000       -2.60903000000000
H           64.47156099999999       -1.17835200000000        2.42008300000000
H           66.43191600000000       -1.37495700000000        4.29527500000000
H           70.10006500000000       -2.20968700000000        5.11981800000000
H           70.04613600000000       -2.27861300000000        7.56881400000000
H           68.09322299999999        0.45381000000000       10.97898800000000
H           67.66194500000000        1.32583600000000        7.60592600000000
H           67.72926000000000        1.38789000000000        5.15728800000000
H           71.67807800000000        0.05377800000000        4.48837600000000
H           73.36181200000000        0.17904100000000        2.54129200000000
H           68.82297099999998       -1.79229700000000       -5.25155800000000
H           68.75468699999999       -1.63559000000000       -7.69868500000000
H           68.42195299999999        1.96121100000000      -10.83950900000000
H           68.45095499999998        2.66609400000000       -7.40039600000000
H           68.52147600000001        2.49343000000000       -4.95480800000000
C           35.88842400000000        0.02335600000000       -0.00475500000000
C           37.34664999999999        0.00152000000000       -0.02262800000000
C           38.48057800000000       -0.01923400000000       -0.02411900000000
C           39.84196000000000       -0.03182400000000       -0.02631000000000
C           41.11617900000000       -0.02151700000000       -0.03107500000000
C           42.30464100000000       -0.00271900000000       -0.03723100000000
C           43.65700200000000        0.02206500000000       -0.02136300000000
C           44.75726899999999        0.02335600000000       -0.00475500000000
C           53.98439699999999        0.02335600000000       -0.00475500000000
C           55.44262300000000        0.00152000000000       -0.02262800000000
C           56.57655099999999       -0.01923400000000       -0.02411900000000
C           57.93793299999999       -0.03182400000000       -0.02631000000000
C           59.21215200000000       -0.02151700000000       -0.03107500000000
C           60.40061399999999       -0.00271900000000       -0.03723100000000
C           61.75297500000000        0.02206500000000       -0.02136300000000
C           62.85324200000000        0.02335600000000       -0.00475500000000
Ni          49.42306399999999        0.00751200000000       -0.03755900000000
C           45.97061200000000       -0.02270400000000        0.03252800000000
C           46.62570700000000       -1.19839400000000        0.02393800000000
C           45.98507400000000       -2.51057300000000       -0.08332700000000
C           46.92224900000000       -3.43596800000000       -0.02633600000000
C           48.21921800000000       -2.77122200000000        0.12977700000000
N           48.04088100000000       -1.35272500000000        0.15303800000000
C           49.40427700000000       -3.40673200000000        0.24878700000000
C           50.69868099999999       -2.68902500000000        0.36843900000000
C           51.96291999999999       -3.33715600000000        0.74421600000000
C           52.91557900000000       -2.42678500000000        0.69075300000000
N           50.86898299999999       -1.43165400000000        0.10014000000000
C           52.26508599999999       -1.18802200000000        0.28251400000000
C           52.88276299999999       -0.02270400000000        0.03252800000000
C           52.13307800000000        1.19046400000000       -0.35371500000000
C           52.66623600000000        2.24258500000000       -0.96217000000000
C           51.63298100000000        3.25855700000000       -1.04469700000000
C           50.54115800000000        2.75694100000000       -0.47747100000000
C           49.28755399999999        3.51474000000000       -0.25118000000000
C           49.34498900000000        4.99643200000000       -0.25866900000000
C           50.12047299999999        5.67437500000000        0.69099200000000
C           50.19521100000000        7.06948500000000        0.67286700000000
C           49.50246700000000        7.80942200000000       -0.30306800000000
C           49.57429900000000        9.28636700000000       -0.32373800000000
O           48.94190500000000       10.00809200000000       -1.33642400000000
O           50.20060900000000        9.90579900000000        0.57877700000000
C           48.73747600000000        7.12474600000000       -1.26219800000000
C           48.66116000000000        5.72957500000000       -1.24075200000000
C           48.11838000000000        2.88610300000000       -0.02589500000000
C           46.84424299999999        3.52847400000000        0.27936800000000
C           45.95486600000000        2.55927300000000        0.35805600000000
C           46.65037100000000        1.29117800000000        0.10940200000000
N           47.91529700000000        1.47533400000000       -0.11204000000000
N           50.76690100000000        1.42655600000000       -0.01494000000000
C           49.44578900000000       -4.88714200000000        0.25478000000000
C           48.93332600000000       -5.60971100000000        1.34371900000000
C           48.99347000000000       -7.00644700000000        1.35347800000000
C           49.57212500000000       -7.70260800000000        0.27569700000000
C           49.64170500000000       -9.18081600000000        0.28206700000000
O           50.21223000000000       -9.86087400000000       -0.79084600000000
O           49.18674799999999       -9.83818800000000        1.25680000000000
C           50.08861599999999       -6.97273800000000       -0.81051500000000
C           50.02769800000000       -5.57634700000000       -0.81903300000000
H           44.93039599999999       -2.71887500000000       -0.19999600000000
H           46.73670299999999       -4.50011300000000       -0.09331900000000
H           52.10949699999999       -4.37379200000000        1.01818400000000
H           53.96230100000000       -2.59630900000000        0.91171000000000
H           53.68828400000000        2.34394200000000       -1.30230500000000
H           51.74712700000000        4.25440800000000       -1.45371700000000
H           50.66300500000000        5.12152000000000        1.44810900000000
H           50.79785700000000        7.56779500000000        1.41998600000000
H           48.98362200000000       11.01963100000000       -1.35872000000000
H           48.19553800000000        7.66594100000000       -2.02971200000000
H           48.07325100000000        5.21886900000000       -1.99393600000000
H           46.64252500000000        4.58181500000000        0.42526900000000
H           44.90475600000000        2.70054700000000        0.57733000000000
H           48.48911400000000       -5.09030900000000        2.18517700000000
H           48.58953900000000       -7.54070100000000        2.20540300000000
H           50.26421200000000      -10.87300500000000       -0.79638700000000
H           50.54202500000000       -7.47936500000000       -1.65423700000000
H           50.43247399999999       -5.03081100000000       -1.66373400000000
201
 energy: -385.855367092306 gnorm: 0.599572062662 xtb: 6.5.1 (b24c23e)
Ni          30.11649914863736        0.00618772887099       -0.00101616791741
C           26.70145161365876       -0.09273191050354        0.07627094805515
C           27.37335005967162       -0.19626239753697        1.24506299827110
C           26.71765961294214       -0.33833234508924        2.53713794605068
C           27.66773606188621       -0.35942135449376        3.46862886322523
C           28.96180614331266       -0.22971145671219        2.79381464300384
N           28.77429109114412       -0.12871785486307        1.39824209476975
C           30.16520559160234       -0.15682504644953        3.42860357846085
C           31.43728092937495        0.00096336995352        2.72715413706655
C           32.71999678676046        0.21618490938186        3.39452814463017
C           33.66501977851702        0.27554999813640        2.45476315169531
N           31.59185459235715       -0.07298947034415        1.41816768077853
C           32.99302471739313        0.08925116550160        1.18197075784324
C           33.58956480482394        0.00450047638266       -0.02721018130316
C           32.82281260638960       -0.19428540931256       -1.25611655829394
C           33.36661676575206       -0.61788782326635       -2.42698288354766
C           32.33896318466586       -0.60503100795430       -3.41477483357637
C           31.19890554881691       -0.17222339135716       -2.81334100377050
C           29.93194959807599        0.04250844289378       -3.52457324407709
C           29.94338058339449        0.17718841691516       -5.00708051058050
C           29.29693836493107       -0.76415789977842       -5.82184251183875
C           29.33338242569856       -0.64160680433577       -7.21030880845047
C           30.02028902843162        0.42764254646072       -7.81803399130930
C           30.05457611077773        0.55188737777432       -9.30419491344146
O           30.73834703707508        1.61089391028877       -9.87107999350600
O           29.48383560283618       -0.27299704094235      -10.01530578409134
C           30.66766980983095        1.36312005454811       -6.99659122828298
C           30.63136006968684        1.23873860422928       -5.60951985816542
C           28.75428348397413        0.12688546263187       -2.85983469991135
C           27.44578405545441        0.37791561516892       -3.44808283898603
C           26.57126699041161        0.32795206447239       -2.44143348758655
C           27.32045077101871        0.05880680297836       -1.22054105949381
N           28.61041670038339       -0.05414060889431       -1.45982551431834
N           31.43728543109946        0.08796970531851       -1.43750541964415
C           30.19470700667069       -0.22969514506275        4.91052439777314
C           30.12774264980155       -1.46809738126957        5.55980961612774
C           30.16716906739924       -1.53527900462369        6.95162192216012
C           30.27284867001312       -0.36108517224007        7.72317689517824
C           30.31490288700057       -0.44145111866149        9.21206439809676
O           30.41741136436459        0.72773268641847        9.94220457525902
O           30.25923376089019       -1.52906876075209        9.78281707372621
C           30.33706016976034        0.87495278441847        7.06161093643084
C           30.29781686966659        0.94035511118437        5.67086244673296
H           25.61781631608081       -0.11227972753531        0.11515128176528
H           25.65488011761078       -0.40652858752613        2.72800609175106
H           27.48185531211049       -0.44622055909881        4.53042966498884
H           32.90034863034816        0.31044692143683        4.45332145425223
H           34.72072223353455        0.42048905941752        2.63767369017494
H           34.39880997070262       -0.89036645452860       -2.57457696123282
H           32.44094690968877       -0.86948712047494       -4.45628540597699
H           28.77095950595783       -1.60137459437356       -5.37268374878846
H           28.82510994067999       -1.38701596071917       -7.81386805374583
H           30.77057550820307        1.70833000461251      -10.86741803908059
H           31.20749199887589        2.19513486406863       -7.43452775169388
H           31.14012727071087        1.97412677097690       -4.99475137510660
H           27.19762228960399        0.57200558926528       -4.48319931699443
H           25.50650204607277        0.47216943921711       -2.53103138985548
H           30.04728897015788       -2.38242901400131        4.97920153625414
H           30.11554690492638       -2.50867257828312        7.42876058304746
H           30.44683254670493        0.69053985288342       10.94268331889054
H           30.41894984537490        1.79584499415970        7.62754096521305
H           30.34846169764064        1.90596837098409        5.17793165158134
Ni          68.75345267910079        0.00784327392190       -0.02989779314244
C           72.16857083006498       -0.08149260128879       -0.11805898599836
C           71.49665150099540       -0.04955282098765       -1.29099680670203
C           72.15235520776365       -0.04168325237163       -2.59084004880312
C           71.20229164017825        0.04476905414133       -3.51855755354254
C           69.90820235458391        0.09581864507221       -2.83332863263824
N           70.09573527719714        0.03520999245261       -1.43536247018827
C           68.70495757001559        0.24143171056447       -3.45551227540796
C           67.43279450066650        0.31727339253001       -2.74056160672318
C           66.15000044460302        0.60796944393145       -3.37856539270513
C           65.20511105961522        0.55860846661854       -2.43803337592402
N           67.27892627577233        0.09270568780127       -1.44936995425608
C           65.87812406711717        0.22680808188940       -1.19528236782937
C           65.28601005256596        0.00353638162461       -0.00403186572542
C           66.04837874211356       -0.33608024742222        1.19356928902991
C           65.50356881954235       -0.89175024011491        2.30779982960454
C           66.53102296337896       -0.99293581950801        3.29064393729803
C           67.67123681714781       -0.49366846772191        2.74322203872907
C           68.93807567936410       -0.36238619182245        3.47438721565087
C           68.92664367118424       -0.39954079991817        4.96249816620296
C           69.57307559771219       -1.42855811018817        5.66328698190623
C           69.53663812307269       -1.46693323072226        7.05661209745340
C           68.84972730564823       -0.47489034643121        7.78359195214701
C           68.81544112001885       -0.52284440737158        9.27412642072799
O           68.13166711494034        0.46373333626635        9.95938304274097
O           69.38618734408685       -1.42423676652083        9.88542226649192
C           68.20234380674019        0.54907182507084        7.07548620259075
C           68.23866162345934        0.58546039680256        5.68333365401588
C           70.11575404289366       -0.20190343954862        2.82377760974701
C           71.42422375934015       -0.02037733322913        3.43704795449017
C           72.29875550904873        0.04606853159748        2.43133504096141
C           71.54958330978430       -0.08049567749192        1.18756066694342
N           70.25959792040207       -0.22029819181342        1.41225029629612
N           67.43329752330999       -0.07649915916688        1.40684230848419
C           68.67533123904826        0.33990551459413       -4.93586377970360
C           68.74227410794340       -0.81536290968724       -5.72363922563591
C           68.70284907149926       -0.72161681322962       -7.11389638153069
C           68.59716791540166        0.53372545057761       -7.74492721494857
C           68.55512719893234        0.62557421615385       -9.23307604942758
O           68.45259420239333        1.87117458259267       -9.82359942200230
O           68.61077036790989       -0.38898193006830       -9.92552833441353
C           68.53295326048658        1.68524026805439       -6.94522043500890
C           68.57219526230044        1.58982616615157       -5.55622720522930
H           73.25220642872148       -0.09642227936691       -0.15894336868684
H           73.21514139534402       -0.08741671167765       -2.78830091250980
H           71.38816932189387        0.08099682439895       -4.58328530053948
H           65.96965658018287        0.82372636139104       -4.41944736911166
H           64.14944442442213        0.72371923032423       -2.60333510696901
H           64.47132151698452       -1.17948129574557        2.42312179202608
H           66.42905067437029       -1.37572404378868        4.29470898934819
H           70.09905858525272       -2.20839438281057        5.12057546959955
H           70.04490812034491       -2.27696531488119        7.57019367754288
H           68.09944033256204        0.44562459707367       10.96030017236035
H           67.66252414110839        1.32503494984449        7.60644703656455
H           67.72989018516316        1.38683161387069        5.15746043002629
H           71.67239481991680        0.05305584074986        4.48764247115536
H           73.36352137500238        0.17899172973741        2.53697982548297
H           68.82273051801617       -1.79054663326529       -5.25232448389252
H           68.75447170454879       -1.63349080572667       -7.70010071896526
H           68.42319211856218        1.94957650225266      -10.82167324002734
H           68.45106869654808        2.66524195610200       -7.40119509508409
H           68.52155557725987        2.49215502366173       -4.95522866783756
C           35.89542010912384        0.02274030918927       -0.00418643503866
C           37.25203885332606        0.00192162658341       -0.02374606946323
C           38.51914503847688       -0.01965894838652       -0.02402109398994
C           39.80684907349220       -0.03174149580733       -0.02589992202787
C           41.08711626142631       -0.02186354943658       -0.03126315482093
C           42.29943324653044       -0.00243983737199       -0.03788296962919
C           43.58198639107297        0.02295181736368       -0.02310198287456
C           44.76723181192816        0.02847418768179       -0.00567337934646
C           54.09120238836835        0.03508432608518       -0.00723220868141
C           55.39202819504484        0.00331679144188       -0.02244445446174
C           56.62920282632234       -0.01957269169435       -0.02418736555432
C           57.91595921543656       -0.03211667643716       -0.02657485425586
C           59.19386278883915       -0.02181949905352       -0.03092197250908
C           60.41207206660933       -0.00228790381767       -0.03737495295189
C           61.73690239146299        0.02180255709043       -0.02203504400097
C           62.95133556716532        0.02311600152736       -0.00341881790850
Ni          49.41996132203064        0.00884141533534       -0.03204501481463
C           46.03750137016519       -0.01035092627118        0.03648421169737
C           46.65569621977230       -1.21188243440411        0.02329487765323
C           45.98576351347965       -2.50223448274530       -0.08318706689287
C           46.93106033934339       -3.43858070935337       -0.02555624168193
C           48.21811416131175       -2.76746596646053        0.12887556183678
N           48.03787143808073       -1.36635102215032        0.15029774437522
C           49.41649066497918       -3.40588436772628        0.25072029813608
C           50.69100212515485       -2.70868339639138        0.36928074156611
C           51.94839846682391       -3.34718393114981        0.74248691948157
C           52.91120922294849       -2.41821710623276        0.68841860023388
N           50.86868340701414       -1.42752168841461        0.10392431274522
C           52.23630223445269       -1.20802952408497        0.28940876249920
C           52.82692859760447       -0.01338049187802        0.02934748772710
C           52.10588850948783        1.19359932107032       -0.35033050828548
C           52.66462049782251        2.25958608531377       -0.96705361200148
C           51.64850732360750        3.26096613738602       -1.04744154867233
C           50.53092756166748        2.75151716087866       -0.46919788070326
C           49.29758596961210        3.50997773648215       -0.25175525842280
C           49.34892544163210        4.99567146739621       -0.26133271069846
C           50.11962033559158        5.67829013941765        0.68812140113145
C           50.19237897941149        7.06982313538614        0.66957799806139
C           49.50012276091300        7.81289287927548       -0.30737988155550
C           49.57931585991546        9.30162325676488       -0.31686362512506
O           48.94573607746687       10.00059248480061       -1.33006549895335
O           50.19189622565680        9.90052463703547        0.56539025413170
C           48.73774393921064        7.12241980148728       -1.26125399814773
C           48.66202871577723        5.73158241589790       -1.23830748111614
C           48.11866264063287        2.88596928889283       -0.02589541168681
C           46.85106711636119        3.52846467005544        0.27798543083897
C           45.94935994807155        2.54836108169285        0.35738375407267
C           46.65511661317326        1.29165340407724        0.11090147826460
N           47.92897326543764        1.48303738350625       -0.10875540059593
N           50.76168715144053        1.42759694068109       -0.02278874308128
C           49.44867119545139       -4.88895271655425        0.25628571028619
C           48.93408034018251       -5.61393704659777        1.34045914268319
C           48.99525955079076       -7.00672013114143        1.34952031660405
C           49.57448658090294       -7.70589542652861        0.27128574841731
C           49.63881477432751       -9.19597276562498        0.28945321540290
O           50.20876491454090       -9.85395918031930       -0.78465648103534
O           49.19333147000346       -9.83212386444719        1.24293133013205