      -----------------------------------------------------------      
     |                   =====================                   |     
     |                           x T B                           |     
     |                   =====================                   |     
     |                         S. Grimme                         |     
     |          Mulliken Center for Theoretical Chemistry        |     
     |                    University of Bonn                     |     
      -----------------------------------------------------------      

   * xtb version 6.5.1 (b24c23e) compiled by 'conda@728c89f4b128' on 2022-07-12

   xtb is free software: you can redistribute it and/or modify it under
   the terms of the GNU Lesser General Public License as published by
   the Free Software Foundation, either version 3 of the License, or
   (at your option) any later version.
   
   xtb is distributed in the hope that it will be useful,
   but WITHOUT ANY WARRANTY; without even the implied warranty of
   MERCHANTABILITY or FITNESS FOR A PARTICULAR PURPOSE.  See the
   GNU Lesser General Public License for more details.
   
   Cite this work as:
   * C. Bannwarth, E. Caldeweyher, S. Ehlert, A. Hansen, P. Pracht,
     J. Seibert, S. Spicher, S. Grimme, WIREs Comput. Mol. Sci., 2020, 11,
     e01493. DOI: 10.1002/wcms.1493
   
   for GFN2-xTB:
   * C. Bannwarth, S. Ehlert and S. Grimme., J. Chem. Theory Comput., 2019,
     15, 1652-1671. DOI: 10.1021/acs.jctc.8b01176
   for GFN1-xTB:
   * S. Grimme, C. Bannwarth, P. Shushkov, J. Chem. Theory Comput., 2017,
     13, 1989-2009. DOI: 10.1021/acs.jctc.7b00118
   for GFN0-xTB:
   * P. Pracht, E. Caldeweyher, S. Ehlert, S. Grimme, ChemRxiv, 2019, preprint.
     DOI: 10.26434/chemrxiv.8326202.v1
   for GFN-FF:
   * S. Spicher and S. Grimme, Angew. Chem. Int. Ed., 2020, 59, 15665-15673.
     DOI: 10.1002/anie.202004239
   
   for ALPB and GBSA implicit solvation:
   * S. Ehlert, M. Stahn, S. Spicher, S. Grimme, J. Chem. Theory Comput.,
     2021, 17, 4250-4261. DOI: 10.1021/acs.jctc.1c00471
   
   for DFT-D4:
   * E. Caldeweyher, C. Bannwarth and S. Grimme, J. Chem. Phys., 2017,
     147, 034112. DOI: 10.1063/1.4993215
   * E. Caldeweyher, S. Ehlert, A. Hansen, H. Neugebauer, S. Spicher,
     C. Bannwarth and S. Grimme, J. Chem. Phys., 2019, 150, 154122.
     DOI: 10.1063/1.5090222
   * E. Caldeweyher, J.-M. Mewes, S. Ehlert and S. Grimme, Phys. Chem. Chem. Phys.
     2020, 22, 8499-8512. DOI: 10.1039/D0CP00502A
   
   for sTDA-xTB:
   * S. Grimme and C. Bannwarth, J. Chem. Phys., 2016, 145, 054103.
     DOI: 10.1063/1.4959605
   
   in the mass-spec context:
   * V. Asgeirsson, C. Bauer and S. Grimme, Chem. Sci., 2017, 8, 4879.
     DOI: 10.1039/c7sc00601b
   * J. Koopman and S. Grimme, ACS Omega 2019, 4, 12, 15120-15133.
     DOI: 10.1021/acsomega.9b02011
   
   for metadynamics refer to:
   * S. Grimme, J. Chem. Theory Comput., 2019, 155, 2847-2862
     DOI: 10.1021/acs.jctc.9b00143
   
   for SPH calculations refer to:
   * S. Spicher and S. Grimme, J. Chem. Theory Comput., 2021, 17, 1701-1714
     DOI: 10.1021/acs.jctc.0c01306
   
   with help from (in alphabetical order)
   P. Atkinson, C. Bannwarth, F. Bohle, G. Brandenburg, E. Caldeweyher
   M. Checinski, S. Dohm, S. Ehlert, S. Ehrlich, I. Gerasimov, C. Hölzer
   A. Katbashev, J. Koopman, C. Lavigne, S. Lehtola, F. März, M. Müller,
   F. Musil, H. Neugebauer, J. Pisarek, C. Plett, P. Pracht, F. Pultar,
   J. Seibert, P. Shushkov, S. Spicher, M. Stahn, M. Steiner, T. Strunk,
   J. Stückrath, T. Rose, and J. Unsleber
   
 * started run on 2022/07/28 at 06:25:21.750     

           -------------------------------------------------
          |                Calculation Setup                |
           -------------------------------------------------

          program call               : xtb xtbopt.xyz --gfn 1 --vipea
          hostname                   : cx3-6-25.cx3.hpc.ic.ac.uk
          coordinate file            : xtbopt.xyz
          omp threads                :                     1

   ID    Z sym.   atoms
    1    6 C      1-5, 7-11, 13-19, 21-26, 28-32, 34-41, 74-78, 80-84, 86-92,
                  94-99, 101-105, 107-114, 147-161, 163-167, 169-175,
                  177-182, 184-188, 190-197, 229-233, 235-239, 241-247,
                  249-254, 256-260, 262-269, 301-305, 307-311, 313-319,
                  321-326, 328-332, 334-341, 373-377, 379-383, 385-391,
                  393-398, 400-404, 406-413
    2    7 N      6, 12, 20, 27, 33, 42, 79, 85, 93, 100, 106, 115, 162, 168,
                  176, 183, 189, 198, 234, 240, 248, 255, 261, 270, 306, 312,
                  320, 327, 333, 342, 378, 384, 392, 399, 405, 414
    3    1 H      43-73, 116-146, 199-228, 271-300, 343-372, 415-444

           -------------------------------------------------
          |                 I P E A - x T B                 |
           -------------------------------------------------

        Reference                      10.1039/c7sc00601b
      * Hamiltonian:
        H0-scaling (s, p, d)           2.150000    2.300000    2.000000
        zeta-weighting                 0.000000
      * Dispersion:
        s8                             2.400000
        a1                             0.630000
        a2                             5.000000
        s9                             0.000000
      * Repulsion:
        kExp                           1.500000
        rExp                           1.000000
      * Coulomb:
        alpha                          1.000000
        third order                    atomic
        anisotropic                    false
      * Halogen bond correction:
        rad-scale                      1.300000
        damping                        0.440000


          ...................................................
          :                      SETUP                      :
          :.................................................:
          :  # basis functions                1674          :
          :  # atomic orbitals                1674          :
          :  # shells                         1150          :
          :  # electrons                      1266          :
          :  # halogen bonds                     0          :
          :  max. iterations                   250          :
          :  Hamiltonian                  GFN1-xTB          :
          :  restarted?                      false          :
          :  GBSA solvation                  false          :
          :  PC potential                    false          :
          :  electronic temp.          300.0000000     K    :
          :  accuracy                    1.0000000          :
          :  -> integral cutoff          0.2500000E+02      :
          :  -> integral neglect         0.1000000E-07      :
          :  -> SCF convergence          0.1000000E-05 Eh   :
          :  -> wf. convergence          0.2000000E-04 e    :
          :  Broyden damping             0.4000000          :
          ...................................................

 iter      E             dE          RMSdq      gap      omega  full diag
   1   -796.3435188 -0.796344E+03  0.956E+00    0.41       0.0  T
   2   -797.9182890 -0.157477E+01  0.602E+00    1.06       1.0  T
   3   -785.8728530  0.120454E+02  0.438E+00    0.10       1.0  T
   4   -799.5460673 -0.136732E+02  0.109E+00    0.78       1.0  T
   5   -800.7668297 -0.122076E+01  0.263E-01    0.72       1.0  T
   6   -800.8353762 -0.685465E-01  0.940E-02    0.79       1.0  T
   7   -800.8420217 -0.664553E-02  0.414E-02    0.77       1.0  T
   8   -800.8426974 -0.675622E-03  0.292E-02    0.77       1.0  T
   9   -800.8429903 -0.292959E-03  0.193E-02    0.77       1.0  T
  10   -800.8432074 -0.217100E-03  0.535E-03    0.77       1.0  T
  11   -800.8432293 -0.218306E-04  0.176E-03    0.77       2.7  T
  12   -800.8432316 -0.230436E-05  0.771E-04    0.77       6.2  T
  13   -800.8432319 -0.301552E-06  0.481E-04    0.77       9.9  T
  14   -800.8432320 -0.153754E-06  0.194E-04    0.77      24.4  T
  15   -800.8432320 -0.353226E-07  0.622E-05    0.77      76.3  T

   *** convergence criteria satisfied after 15 iterations ***

         #    Occupation            Energy/Eh            Energy/eV
      -------------------------------------------------------------
         1        2.0000           -1.0335018             -28.1230
       ...           ...                  ...                  ...
       627        2.0000           -0.3792480             -10.3199
       628        2.0000           -0.3710269             -10.0962
       629        2.0000           -0.3688881             -10.0380
       630        2.0000           -0.3643933              -9.9156
       631        2.0000           -0.3582506              -9.7485
       632        2.0000           -0.3516618              -9.5692
       633        2.0000           -0.3459631              -9.4141 (HOMO)
       634        0.0000           -0.3175201              -8.6402 (LUMO)
       635                         -0.3109631              -8.4617
       636                         -0.3030243              -8.2457
       637                         -0.2956222              -8.0443
       638                         -0.2942308              -8.0064
       ...                                ...                  ...
      1674                        614.1629196           16712.2237
      -------------------------------------------------------------
                  HL-Gap            0.0284430 Eh            0.7740 eV
             Fermi-level           -0.3317409 Eh           -9.0271 eV

 SCC (total)                   0 d,  0 h,  0 min, 23.575 sec
 SCC setup                      ...        0 min,  0.020 sec (  0.083%)
 Dispersion                     ...        0 min,  0.026 sec (  0.112%)
 classical contributions        ...        0 min,  0.008 sec (  0.034%)
 integral evaluation            ...        0 min,  1.516 sec (  6.432%)
 iterations                     ...        0 min, 18.702 sec ( 79.329%)
 molecular gradient             ...        0 min,  3.055 sec ( 12.958%)
 printout                       ...        0 min,  0.248 sec (  1.053%)

         :::::::::::::::::::::::::::::::::::::::::::::::::::::
         ::                     SUMMARY                     ::
         :::::::::::::::::::::::::::::::::::::::::::::::::::::
         :: total energy            -785.373387440484 Eh    ::
         :: gradient norm              0.107484566346 Eh/a0 ::
         :: HOMO-LUMO gap              0.773973181021 eV    ::
         ::.................................................::
         :: SCC energy              -800.843232048881 Eh    ::
         :: -> electrostatic           0.480671116098 Eh    ::
         :: repulsion energy          15.845137357974 Eh    ::
         :: dispersion energy         -0.375292749577 Eh    ::
         :: halogen bond corr.         0.000000000000 Eh    ::
         :: add. restraining           0.000000000000 Eh    ::
         :: total charge               0.000000000928 e     ::
         :::::::::::::::::::::::::::::::::::::::::::::::::::::

           ------------------------------------------------- 
          |        vertical delta SCC IP calculation        |
           ------------------------------------------------- 
   1   -800.4714668 -0.800471E+03  0.543E-02    0.77       0.0  T
   2   -800.4719256 -0.458788E-03  0.552E-02    0.73       1.0  T
   3   -800.4765168 -0.459126E-02  0.288E-02    0.76       1.0  T
   4   -800.4761362  0.380629E-03  0.271E-02    0.75       1.0  T
   5   -800.4774512 -0.131498E-02  0.158E-02    0.75       1.0  T
   6   -800.4777928 -0.341614E-03  0.839E-03    0.75       1.0  T
   7   -800.4778999 -0.107135E-03  0.356E-03    0.75       1.3  T
   8   -800.4779136 -0.137183E-04  0.125E-03    0.75       3.8  T
   9   -800.4779149 -0.129329E-05  0.695E-04    0.75       6.8  T
  10   -800.4779153 -0.361593E-06  0.283E-04    0.75      16.8  T
  11   -800.4779154 -0.722803E-07  0.100E-04    0.75      47.4  T
  12   -800.4779154 -0.878163E-08  0.453E-05    0.75     104.7  T
     SCC iter.                  ...        0 min, 14.987 sec
     gradient                   ...        0 min,  3.087 sec
------------------------------------------------------------------------
empirical IP shift (eV):    4.8455
delta SCC IP (eV):    5.0953
------------------------------------------------------------------------
           ------------------------------------------------- 
          |        vertical delta SCC EA calculation        |
           ------------------------------------------------- 
   1   -801.1187719 -0.801119E+03  0.941E-02    0.21       0.0  T
   2   -801.1289397 -0.101678E-01  0.851E-02    0.08       1.0  T
   3   -801.1387027 -0.976301E-02  0.455E-02    0.15       1.0  T
   4   -801.1397362 -0.103346E-02  0.321E-02    0.12       1.0  T
   5   -801.1386572  0.107897E-02  0.265E-02    0.13       1.0  T
   6   -801.1365180  0.213919E-02  0.326E-02    0.14       1.0  T
   7   -801.1403088 -0.379077E-02  0.631E-03    0.13       1.0  T
   8   -801.1403678 -0.590215E-04  0.247E-03    0.13       1.9  T
   9   -801.1403719 -0.405143E-05  0.142E-03    0.13       3.4  T
  10   -801.1403736 -0.172509E-05  0.558E-04    0.13       8.5  T
  11   -801.1403738 -0.223898E-06  0.278E-04    0.13      17.1  T
  12   -801.1403739 -0.661723E-07  0.829E-05    0.13      57.3  T
  13   -801.1403739 -0.512205E-08  0.439E-05    0.13     108.0  T
     SCC iter.                  ...        0 min, 16.205 sec
     gradient                   ...        0 min,  3.062 sec
------------------------------------------------------------------------
empirical EA shift (eV):    4.8455
delta SCC EA (eV):    3.2401
------------------------------------------------------------------------
           -------------------------------------------------
          |                Property Printout                |
           -------------------------------------------------

    * Orbital Energies and Occupations

         #    Occupation            Energy/Eh            Energy/eV
      -------------------------------------------------------------
         1        2.0000           -0.9984633             -27.1696
       ...           ...                  ...                  ...
       622        2.0000           -0.3462847              -9.4229
       623        2.0000           -0.3460153              -9.4156
       624        2.0000           -0.3405821              -9.2677
       625        2.0000           -0.3402863              -9.2597
       626        2.0000           -0.3385422              -9.2122
       627        2.0000           -0.3380029              -9.1975
       628        2.0000           -0.3344815              -9.1017
       629        2.0000           -0.3334198              -9.0728
       630        2.0000           -0.3272613              -8.9052
       631        2.0000           -0.3206273              -8.7247
       632        2.0000           -0.3132751              -8.5246
       633        2.0000           -0.3057641              -8.3203
       634        0.9195           -0.2770118              -7.5379 (HOMO)
       635        0.0805           -0.2723841              -7.4119 (LUMO)
       636        0.0000           -0.2646370              -7.2011
       637        0.0000           -0.2607368              -7.0950
       638        0.0000           -0.2604234              -7.0865
       639                         -0.2563924              -6.9768
       640                         -0.2549546              -6.9377
       641                         -0.2546511              -6.9294
       642                         -0.2529185              -6.8823
       643                         -0.2528356              -6.8800
       644                         -0.2479840              -6.7480
       645                         -0.2403461              -6.5402
       ...                                ...                  ...
      1674                        614.2011202           16713.2632
      -------------------------------------------------------------
                  HL-Gap            0.0046278 Eh            0.1259 eV
             Fermi-level           -0.2830448 Eh           -7.7020 eV

  Mulliken/CM5 charges         n(s)   n(p)   n(d)
     1C    -0.02662 -0.06742   1.086  2.941  0.000
     2C     0.06008  0.12048   1.105  2.835  0.000
     3C    -0.03831 -0.08359   1.079  2.959  0.000
     4C    -0.03429 -0.07931   1.076  2.959  0.000
     5C     0.06068  0.12451   1.100  2.839  0.000
     6N    -0.16136 -0.51430   1.312  3.849  0.000
     7C     0.00786  0.01358   1.091  2.901  0.000
     8C    -0.00478 -0.01335   1.075  2.930  0.000
     9C    -0.02404 -0.07734   1.081  2.943  0.000
    10C    -0.03491 -0.08409   1.061  2.974  0.000
    11C     0.06696  0.12206   1.080  2.853  0.000
    12N    -0.19091 -0.45662   1.283  3.908  0.000
    13C     0.00735 -0.08374   1.090  2.903  0.000
    14C     0.00723 -0.08384   1.090  2.903  0.000
    15C    -0.03590 -0.08510   1.061  2.975  0.000
    16C    -0.02616 -0.07948   1.078  2.948  0.000
    17C     0.05695  0.12490   1.116  2.827  0.000
    18C    -0.03811 -0.08422   1.081  2.957  0.000
    19C    -0.03809 -0.08400   1.083  2.955  0.000
    20N    -0.28661 -0.47313   1.293  3.993  0.000
    21C     0.06222  0.13279   1.128  2.810  0.000
    22C     0.01594  0.02307   1.086  2.898  0.000
    23C     0.06477  0.12942   1.109  2.826  0.000
    24C    -0.03263 -0.07753   1.074  2.959  0.000
    25C    -0.03302 -0.07808   1.072  2.962  0.000
    26C     0.06065  0.12393   1.099  2.840  0.000
    27N    -0.15827 -0.51037   1.315  3.843  0.000
    28C     0.00733  0.01310   1.091  2.901  0.000
    29C    -0.00500 -0.01356   1.074  2.931  0.000
    30C    -0.02497 -0.07838   1.080  2.945  0.000
    31C    -0.03578 -0.08498   1.061  2.975  0.000
    32C     0.06710  0.12240   1.079  2.854  0.000
    33N    -0.19092 -0.45694   1.283  3.908  0.000
    34C     0.00761 -0.08345   1.089  2.903  0.000
    35C     0.00746 -0.08356   1.089  2.903  0.000
    36C    -0.03534 -0.08450   1.061  2.974  0.000
    37C    -0.02526 -0.07849   1.079  2.947  0.000
    38C     0.05874  0.12805   1.120  2.821  0.000
    39C    -0.03883 -0.08491   1.086  2.952  0.000
    40C    -0.04262 -0.08897   1.090  2.952  0.000
    41C     0.05699  0.12271   1.125  2.818  0.000
    42N    -0.29023 -0.47697   1.293  3.997  0.000
    43H     0.02349  0.08246   0.977  0.000  0.000
    44H     0.03403  0.09069   0.966  0.000  0.000
    45H     0.02388  0.08266   0.976  0.000  0.000
    46H     0.16143  0.36972   0.839  0.000  0.000
    47H     0.01917  0.07728   0.981  0.000  0.000
    48H     0.02446  0.08493   0.976  0.000  0.000
    49H     0.02869  0.08938   0.971  0.000  0.000
    50H     0.03388  0.09608   0.966  0.000  0.000
    51H     0.02613  0.08810   0.974  0.000  0.000
    52H     0.02866  0.08933   0.971  0.000  0.000
    53H     0.02514  0.08715   0.975  0.000  0.000
    54H     0.03375  0.09595   0.966  0.000  0.000
    55H     0.02323  0.08368   0.977  0.000  0.000
    56H     0.01886  0.07687   0.981  0.000  0.000
    57H     0.01518  0.07391   0.985  0.000  0.000
    58H     0.01721  0.07573   0.983  0.000  0.000
    59H     0.02729  0.08584   0.973  0.000  0.000
    60H     0.02526  0.08410   0.975  0.000  0.000
    61H     0.15901  0.36724   0.841  0.000  0.000
    62H     0.01811  0.07616   0.982  0.000  0.000
    63H     0.02334  0.08380   0.977  0.000  0.000
    64H     0.03413  0.09634   0.966  0.000  0.000
    65H     0.03068  0.09138   0.969  0.000  0.000
    66H     0.02505  0.08700   0.975  0.000  0.000
    67H     0.02481  0.08681   0.975  0.000  0.000
    68H     0.03374  0.09595   0.966  0.000  0.000
    69H     0.02966  0.09033   0.970  0.000  0.000
    70H     0.02414  0.08462   0.976  0.000  0.000
    71H     0.01997  0.07808   0.980  0.000  0.000
    72H     0.01450  0.07321   0.985  0.000  0.000
    73H     0.02429  0.08069   0.976  0.000  0.000
    74C    -0.02649 -0.06731   1.086  2.941  0.000
    75C     0.06013  0.12052   1.105  2.835  0.000
    76C    -0.03827 -0.08356   1.080  2.959  0.000
    77C    -0.03432 -0.07926   1.075  2.959  0.000
    78C     0.06077  0.12463   1.100  2.839  0.000
    79N    -0.16124 -0.51409   1.312  3.849  0.000
    80C     0.00818  0.01387   1.092  2.900  0.000
    81C    -0.00478 -0.01341   1.075  2.930  0.000
    82C    -0.02442 -0.07782   1.080  2.945  0.000
    83C    -0.03515 -0.08437   1.061  2.974  0.000
    84C     0.06667  0.12178   1.079  2.854  0.000
    85N    -0.19127 -0.45703   1.283  3.908  0.000
    86C     0.00732 -0.08371   1.090  2.903  0.000
    87C     0.00725 -0.08384   1.090  2.903  0.000
    88C    -0.03599 -0.08514   1.062  2.974  0.000
    89C    -0.02635 -0.07960   1.078  2.948  0.000
    90C     0.05705  0.12493   1.116  2.827  0.000
    91C    -0.03831 -0.08438   1.082  2.957  0.000
    92C    -0.03823 -0.08408   1.084  2.955  0.000
    93N    -0.28696 -0.47316   1.294  3.993  0.000
    94C     0.06233  0.13293   1.128  2.809  0.000
    95C     0.01585  0.02292   1.085  2.899  0.000
    96C     0.06513  0.12984   1.109  2.826  0.000
    97C    -0.03251 -0.07738   1.074  2.959  0.000
    98C    -0.03294 -0.07797   1.071  2.962  0.000
    99C     0.06067  0.12390   1.099  2.841  0.000
   100N    -0.15845 -0.51033   1.316  3.843  0.000
   101C     0.00769  0.01345   1.092  2.901  0.000
   102C    -0.00477 -0.01338   1.075  2.930  0.000
   103C    -0.02512 -0.07845   1.080  2.945  0.000
   104C    -0.03558 -0.08480   1.061  2.975  0.000
   105C     0.06678  0.12191   1.079  2.854  0.000
   106N    -0.19151 -0.45727   1.283  3.908  0.000
   107C     0.00745 -0.08365   1.090  2.903  0.000
   108C     0.00737 -0.08369   1.090  2.903  0.000
   109C    -0.03528 -0.08444   1.061  2.974  0.000
   110C    -0.02546 -0.07880   1.078  2.947  0.000
   111C     0.05883  0.12817   1.120  2.821  0.000
   112C    -0.03888 -0.08488   1.087  2.952  0.000
   113C    -0.04259 -0.08895   1.091  2.952  0.000
   114C     0.05704  0.12272   1.125  2.818  0.000
   115N    -0.29013 -0.47692   1.293  3.997  0.000
   116H     0.02351  0.08249   0.976  0.000  0.000
   117H     0.03413  0.09079   0.966  0.000  0.000
   118H     0.02412  0.08290   0.976  0.000  0.000
   119H     0.16167  0.36985   0.838  0.000  0.000
   120H     0.01966  0.07760   0.980  0.000  0.000
   121H     0.02455  0.08500   0.975  0.000  0.000
   122H     0.02852  0.08914   0.971  0.000  0.000
   123H     0.03354  0.09573   0.966  0.000  0.000
   124H     0.02645  0.08851   0.974  0.000  0.000
   125H     0.02859  0.08930   0.971  0.000  0.000
   126H     0.02492  0.08685   0.975  0.000  0.000
   127H     0.03400  0.09621   0.966  0.000  0.000
   128H     0.02310  0.08357   0.977  0.000  0.000
   129H     0.01855  0.07646   0.981  0.000  0.000
   130H     0.01545  0.07432   0.985  0.000  0.000
   131H     0.01763  0.07626   0.982  0.000  0.000
   132H     0.02754  0.08627   0.972  0.000  0.000
   133H     0.02565  0.08458   0.974  0.000  0.000
   134H     0.15920  0.36736   0.841  0.000  0.000
   135H     0.01842  0.07640   0.982  0.000  0.000
   136H     0.02339  0.08385   0.977  0.000  0.000
   137H     0.03396  0.09617   0.966  0.000  0.000
   138H     0.03042  0.09114   0.970  0.000  0.000
   139H     0.02460  0.08653   0.975  0.000  0.000
   140H     0.02481  0.08686   0.975  0.000  0.000
   141H     0.03331  0.09550   0.967  0.000  0.000
   142H     0.02962  0.09025   0.970  0.000  0.000
   143H     0.02403  0.08450   0.976  0.000  0.000
   144H     0.01955  0.07746   0.980  0.000  0.000
   145H     0.01456  0.07326   0.985  0.000  0.000
   146H     0.02428  0.08069   0.976  0.000  0.000
   147C    -0.02893 -0.03113   1.067  2.962  0.000
   148C    -0.02523 -0.02744   1.071  2.954  0.000
   149C    -0.02769 -0.02984   1.068  2.960  0.000
   150C    -0.02636 -0.02848   1.070  2.957  0.000
   151C    -0.02707 -0.02917   1.069  2.958  0.000
   152C    -0.02705 -0.02915   1.069  2.958  0.000
   153C    -0.02647 -0.02856   1.070  2.957  0.000
   154C    -0.02776 -0.02985   1.068  2.960  0.000
   155C    -0.02539 -0.02753   1.071  2.955  0.000
   156C    -0.02894 -0.03117   1.067  2.962  0.000
   157C     0.01121  0.01836   1.081  2.908  0.000
   158C     0.06456  0.12924   1.109  2.826  0.000
   159C    -0.03545 -0.08036   1.071  2.964  0.000
   160C    -0.03370 -0.07874   1.072  2.962  0.000
   161C     0.05871  0.12198   1.096  2.845  0.000
   162N    -0.15836 -0.51043   1.315  3.844  0.000
   163C     0.01101  0.01659   1.094  2.895  0.000
   164C    -0.00377 -0.01249   1.075  2.929  0.000
   165C    -0.02505 -0.07845   1.078  2.948  0.000
   166C    -0.03529 -0.08446   1.061  2.974  0.000
   167C     0.06687  0.12193   1.079  2.854  0.000
   168N    -0.19138 -0.45704   1.283  3.908  0.000
   169C     0.00738 -0.08374   1.090  2.903  0.000
   170C     0.00742 -0.08364   1.090  2.903  0.000
   171C    -0.03496 -0.08418   1.061  2.974  0.000
   172C    -0.02387 -0.07718   1.080  2.944  0.000
   173C     0.05608  0.12401   1.115  2.829  0.000
   174C    -0.03841 -0.08447   1.082  2.956  0.000
   175C    -0.03933 -0.08514   1.083  2.957  0.000
   176N    -0.28598 -0.47200   1.293  3.993  0.000
   177C     0.06213  0.13280   1.128  2.809  0.000
   178C     0.01434  0.02152   1.084  2.902  0.000
   179C     0.06461  0.12935   1.109  2.826  0.000
   180C    -0.03428 -0.07913   1.073  2.962  0.000
   181C    -0.03364 -0.07862   1.072  2.962  0.000
   182C     0.05918  0.12252   1.097  2.844  0.000
   183N    -0.15730 -0.50962   1.315  3.843  0.000
   184C     0.01062  0.01620   1.094  2.896  0.000
   185C    -0.00393 -0.01264   1.075  2.929  0.000
   186C    -0.02496 -0.07820   1.078  2.947  0.000
   187C    -0.03519 -0.08437   1.061  2.974  0.000
   188C     0.06682  0.12192   1.079  2.854  0.000
   189N    -0.19149 -0.45723   1.283  3.908  0.000
   190C     0.00737 -0.08368   1.090  2.903  0.000
   191C     0.00752 -0.08357   1.090  2.903  0.000
   192C    -0.03531 -0.08452   1.061  2.975  0.000
   193C    -0.02416 -0.07761   1.079  2.945  0.000
   194C     0.05605  0.12391   1.115  2.829  0.000
   195C    -0.03852 -0.08462   1.083  2.956  0.000
   196C    -0.04024 -0.08610   1.082  2.958  0.000
   197C     0.06184  0.13248   1.129  2.809  0.000
   198N    -0.28736 -0.47309   1.293  3.994  0.000
   199H     0.02479  0.08350   0.975  0.000  0.000
   200H     0.02340  0.08243   0.977  0.000  0.000
   201H     0.15913  0.36699   0.841  0.000  0.000
   202H     0.01947  0.07739   0.981  0.000  0.000
   203H     0.02334  0.08380   0.977  0.000  0.000
   204H     0.03330  0.09550   0.967  0.000  0.000
   205H     0.02448  0.08641   0.976  0.000  0.000
   206H     0.02905  0.08978   0.971  0.000  0.000
   207H     0.02565  0.08769   0.974  0.000  0.000
   208H     0.02881  0.08946   0.971  0.000  0.000
   209H     0.03288  0.09507   0.967  0.000  0.000
   210H     0.02385  0.08431   0.976  0.000  0.000
   211H     0.01928  0.07731   0.981  0.000  0.000
   212H     0.01387  0.07269   0.986  0.000  0.000
   213H     0.01632  0.07476   0.984  0.000  0.000
   214H     0.02582  0.08436   0.974  0.000  0.000
   215H     0.02357  0.08249   0.976  0.000  0.000
   216H     0.15912  0.36697   0.841  0.000  0.000
   217H     0.02002  0.07803   0.980  0.000  0.000
   218H     0.02375  0.08422   0.976  0.000  0.000
   219H     0.02910  0.08977   0.971  0.000  0.000
   220H     0.02475  0.08675   0.975  0.000  0.000
   221H     0.03296  0.09516   0.967  0.000  0.000
   222H     0.03005  0.09072   0.970  0.000  0.000
   223H     0.03326  0.09546   0.967  0.000  0.000
   224H     0.02486  0.08685   0.975  0.000  0.000
   225H     0.02344  0.08390   0.977  0.000  0.000
   226H     0.01893  0.07687   0.981  0.000  0.000
   227H     0.01384  0.07276   0.986  0.000  0.000
   228H     0.01527  0.07380   0.985  0.000  0.000
   229C     0.01263  0.01986   1.082  2.905  0.000
   230C     0.06443  0.12921   1.110  2.826  0.000
   231C    -0.03499 -0.07982   1.072  2.963  0.000
   232C    -0.03371 -0.07878   1.072  2.961  0.000
   233C     0.05872  0.12203   1.097  2.845  0.000
   234N    -0.15771 -0.51022   1.315  3.843  0.000
   235C     0.01074  0.01640   1.094  2.895  0.000
   236C    -0.00391 -0.01251   1.075  2.929  0.000
   237C    -0.02470 -0.07801   1.078  2.947  0.000
   238C    -0.03516 -0.08433   1.061  2.974  0.000
   239C     0.06715  0.12228   1.079  2.853  0.000
   240N    -0.19097 -0.45671   1.283  3.908  0.000
   241C     0.00750 -0.08362   1.090  2.903  0.000
   242C     0.00746 -0.08360   1.090  2.903  0.000
   243C    -0.03505 -0.08427   1.061  2.974  0.000
   244C    -0.02365 -0.07699   1.081  2.943  0.000
   245C     0.05598  0.12388   1.115  2.829  0.000
   246C    -0.03830 -0.08444   1.082  2.956  0.000
   247C    -0.03951 -0.08532   1.082  2.957  0.000
   248N    -0.28614 -0.47232   1.293  3.993  0.000
   249C     0.06198  0.13267   1.128  2.810  0.000
   250C     0.01341  0.02064   1.083  2.903  0.000
   251C     0.06452  0.12933   1.110  2.826  0.000
   252C    -0.03465 -0.07946   1.072  2.962  0.000
   253C    -0.03366 -0.07874   1.072  2.961  0.000
   254C     0.05882  0.12214   1.097  2.844  0.000
   255N    -0.15750 -0.51004   1.315  3.843  0.000
   256C     0.01069  0.01634   1.094  2.896  0.000
   257C    -0.00397 -0.01256   1.075  2.929  0.000
   258C    -0.02462 -0.07795   1.078  2.947  0.000
   259C    -0.03514 -0.08431   1.061  2.974  0.000
   260C     0.06718  0.12236   1.079  2.853  0.000
   261N    -0.19093 -0.45677   1.283  3.908  0.000
   262C     0.00749 -0.08355   1.090  2.903  0.000
   263C     0.00755 -0.08355   1.090  2.903  0.000
   264C    -0.03517 -0.08439   1.061  2.975  0.000
   265C    -0.02372 -0.07706   1.081  2.943  0.000
   266C     0.05593  0.12381   1.115  2.829  0.000
   267C    -0.03829 -0.08444   1.082  2.956  0.000
   268C    -0.03975 -0.08558   1.082  2.958  0.000
   269C     0.06192  0.13260   1.128  2.810  0.000
   270N    -0.28633 -0.47255   1.293  3.994  0.000
   271H     0.02502  0.08347   0.975  0.000  0.000
   272H     0.02305  0.08192   0.977  0.000  0.000
   273H     0.15902  0.36709   0.841  0.000  0.000
   274H     0.02019  0.07830   0.980  0.000  0.000
   275H     0.02370  0.08417   0.976  0.000  0.000
   276H     0.03328  0.09548   0.967  0.000  0.000
   277H     0.02484  0.08679   0.975  0.000  0.000
   278H     0.02951  0.09024   0.970  0.000  0.000
   279H     0.02546  0.08749   0.975  0.000  0.000
   280H     0.02897  0.08963   0.971  0.000  0.000
   281H     0.03290  0.09509   0.967  0.000  0.000
   282H     0.02370  0.08415   0.976  0.000  0.000
   283H     0.01881  0.07698   0.981  0.000  0.000
   284H     0.01364  0.07240   0.986  0.000  0.000
   285H     0.01597  0.07434   0.984  0.000  0.000
   286H     0.02529  0.08374   0.975  0.000  0.000
   287H     0.02312  0.08200   0.977  0.000  0.000
   288H     0.15900  0.36708   0.841  0.000  0.000
   289H     0.02035  0.07849   0.980  0.000  0.000
   290H     0.02387  0.08434   0.976  0.000  0.000
   291H     0.02904  0.08969   0.971  0.000  0.000
   292H     0.02532  0.08736   0.975  0.000  0.000
   293H     0.03290  0.09510   0.967  0.000  0.000
   294H     0.02973  0.09046   0.970  0.000  0.000
   295H     0.03339  0.09559   0.967  0.000  0.000
   296H     0.02491  0.08686   0.975  0.000  0.000
   297H     0.02350  0.08396   0.976  0.000  0.000
   298H     0.01857  0.07674   0.981  0.000  0.000
   299H     0.01358  0.07235   0.986  0.000  0.000
   300H     0.01560  0.07398   0.984  0.000  0.000
   301C     0.01337  0.02060   1.083  2.903  0.000
   302C     0.06452  0.12932   1.110  2.826  0.000
   303C    -0.03465 -0.07947   1.072  2.962  0.000
   304C    -0.03367 -0.07873   1.072  2.961  0.000
   305C     0.05884  0.12216   1.097  2.844  0.000
   306N    -0.15754 -0.51005   1.315  3.843  0.000
   307C     0.01068  0.01633   1.094  2.896  0.000
   308C    -0.00393 -0.01254   1.075  2.929  0.000
   309C    -0.02467 -0.07798   1.078  2.947  0.000
   310C    -0.03515 -0.08434   1.061  2.974  0.000
   311C     0.06712  0.12227   1.079  2.853  0.000
   312N    -0.19101 -0.45680   1.283  3.908  0.000
   313C     0.00752 -0.08357   1.090  2.903  0.000
   314C     0.00746 -0.08361   1.090  2.903  0.000
   315C    -0.03515 -0.08435   1.061  2.974  0.000
   316C    -0.02376 -0.07710   1.081  2.943  0.000
   317C     0.05594  0.12384   1.115  2.829  0.000
   318C    -0.03838 -0.08451   1.082  2.956  0.000
   319C    -0.03981 -0.08560   1.082  2.958  0.000
   320N    -0.28635 -0.47255   1.293  3.994  0.000
   321C     0.06189  0.13258   1.128  2.810  0.000
   322C     0.01266  0.01988   1.083  2.905  0.000
   323C     0.06446  0.12926   1.110  2.826  0.000
   324C    -0.03500 -0.07982   1.072  2.963  0.000
   325C    -0.03372 -0.07880   1.072  2.961  0.000
   326C     0.05868  0.12200   1.097  2.845  0.000
   327N    -0.15762 -0.51014   1.315  3.843  0.000
   328C     0.01079  0.01644   1.094  2.895  0.000
   329C    -0.00391 -0.01251   1.075  2.929  0.000
   330C    -0.02467 -0.07798   1.078  2.947  0.000
   331C    -0.03516 -0.08432   1.061  2.974  0.000
   332C     0.06716  0.12231   1.079  2.853  0.000
   333N    -0.19096 -0.45675   1.283  3.908  0.000
   334C     0.00748 -0.08356   1.090  2.903  0.000
   335C     0.00753 -0.08358   1.090  2.903  0.000
   336C    -0.03509 -0.08432   1.061  2.975  0.000
   337C    -0.02365 -0.07700   1.081  2.943  0.000
   338C     0.05593  0.12380   1.115  2.829  0.000
   339C    -0.03831 -0.08444   1.082  2.956  0.000
   340C    -0.03953 -0.08532   1.082  2.957  0.000
   341C     0.06201  0.13272   1.128  2.810  0.000
   342N    -0.28615 -0.47232   1.293  3.993  0.000
   343H     0.02528  0.08376   0.975  0.000  0.000
   344H     0.02315  0.08203   0.977  0.000  0.000
   345H     0.15900  0.36705   0.841  0.000  0.000
   346H     0.02034  0.07844   0.980  0.000  0.000
   347H     0.02383  0.08431   0.976  0.000  0.000
   348H     0.03321  0.09542   0.967  0.000  0.000
   349H     0.02497  0.08695   0.975  0.000  0.000
   350H     0.02973  0.09043   0.970  0.000  0.000
   351H     0.02518  0.08720   0.975  0.000  0.000
   352H     0.02905  0.08971   0.971  0.000  0.000
   353H     0.03292  0.09512   0.967  0.000  0.000
   354H     0.02351  0.08397   0.976  0.000  0.000
   355H     0.01865  0.07680   0.981  0.000  0.000
   356H     0.01351  0.07228   0.986  0.000  0.000
   357H     0.01563  0.07399   0.984  0.000  0.000
   358H     0.02484  0.08333   0.975  0.000  0.000
   359H     0.02292  0.08180   0.977  0.000  0.000
   360H     0.15902  0.36707   0.841  0.000  0.000
   361H     0.02020  0.07833   0.980  0.000  0.000
   362H     0.02371  0.08419   0.976  0.000  0.000
   363H     0.02896  0.08960   0.971  0.000  0.000
   364H     0.02554  0.08759   0.974  0.000  0.000
   365H     0.03286  0.09505   0.967  0.000  0.000
   366H     0.02952  0.09026   0.970  0.000  0.000
   367H     0.03340  0.09561   0.967  0.000  0.000
   368H     0.02480  0.08673   0.975  0.000  0.000
   369H     0.02368  0.08413   0.976  0.000  0.000
   370H     0.01883  0.07698   0.981  0.000  0.000
   371H     0.01361  0.07237   0.986  0.000  0.000
   372H     0.01596  0.07432   0.984  0.000  0.000
   373C     0.01413  0.02138   1.084  2.902  0.000
   374C     0.06452  0.12932   1.110  2.826  0.000
   375C    -0.03431 -0.07913   1.073  2.962  0.000
   376C    -0.03365 -0.07872   1.072  2.961  0.000
   377C     0.05904  0.12236   1.097  2.844  0.000
   378N    -0.15749 -0.51003   1.315  3.843  0.000
   379C     0.01025  0.01590   1.093  2.896  0.000
   380C    -0.00406 -0.01266   1.075  2.929  0.000
   381C    -0.02466 -0.07798   1.078  2.947  0.000
   382C    -0.03513 -0.08432   1.061  2.974  0.000
   383C     0.06718  0.12237   1.079  2.853  0.000
   384N    -0.19094 -0.45678   1.283  3.908  0.000
   385C     0.00755 -0.08353   1.089  2.903  0.000
   386C     0.00746 -0.08360   1.090  2.903  0.000
   387C    -0.03529 -0.08448   1.061  2.975  0.000
   388C    -0.02390 -0.07724   1.081  2.943  0.000
   389C     0.05606  0.12403   1.115  2.829  0.000
   390C    -0.03828 -0.08442   1.082  2.956  0.000
   391C    -0.04007 -0.08596   1.082  2.959  0.000
   392N    -0.28694 -0.47314   1.292  3.995  0.000
   393C     0.06165  0.13218   1.128  2.810  0.000
   394C     0.01123  0.01846   1.081  2.908  0.000
   395C     0.06424  0.12895   1.110  2.826  0.000
   396C    -0.03554 -0.08044   1.072  2.964  0.000
   397C    -0.03375 -0.07883   1.072  2.961  0.000
   398C     0.05862  0.12196   1.097  2.845  0.000
   399N    -0.15808 -0.51057   1.314  3.844  0.000
   400C     0.01075  0.01641   1.094  2.895  0.000
   401C    -0.00397 -0.01258   1.075  2.929  0.000
   402C    -0.02485 -0.07815   1.078  2.947  0.000
   403C    -0.03530 -0.08446   1.061  2.974  0.000
   404C     0.06724  0.12242   1.079  2.853  0.000
   405N    -0.19080 -0.45663   1.283  3.908  0.000
   406C     0.00749 -0.08354   1.089  2.903  0.000
   407C     0.00748 -0.08363   1.090  2.903  0.000
   408C    -0.03498 -0.08420   1.061  2.974  0.000
   409C    -0.02353 -0.07688   1.081  2.943  0.000
   410C     0.05597  0.12386   1.115  2.829  0.000
   411C    -0.03825 -0.08439   1.082  2.956  0.000
   412C    -0.03926 -0.08507   1.082  2.957  0.000
   413C     0.06214  0.13289   1.128  2.810  0.000
   414N    -0.28582 -0.47208   1.293  3.993  0.000
   415H     0.02582  0.08425   0.974  0.000  0.000
   416H     0.02339  0.08226   0.977  0.000  0.000
   417H     0.15894  0.36704   0.841  0.000  0.000
   418H     0.02048  0.07860   0.980  0.000  0.000
   419H     0.02404  0.08452   0.976  0.000  0.000
   420H     0.03340  0.09560   0.967  0.000  0.000
   421H     0.02510  0.08708   0.975  0.000  0.000
   422H     0.03004  0.09074   0.970  0.000  0.000
   423H     0.02488  0.08688   0.975  0.000  0.000
   424H     0.02919  0.08986   0.971  0.000  0.000
   425H     0.03313  0.09533   0.967  0.000  0.000
   426H     0.02319  0.08365   0.977  0.000  0.000
   427H     0.01815  0.07632   0.982  0.000  0.000
   428H     0.01357  0.07234   0.986  0.000  0.000
   429H     0.01493  0.07330   0.985  0.000  0.000
   430H     0.02435  0.08282   0.976  0.000  0.000
   431H     0.02302  0.08190   0.977  0.000  0.000
   432H     0.15898  0.36710   0.841  0.000  0.000
   433H     0.01976  0.07789   0.980  0.000  0.000
   434H     0.02337  0.08384   0.977  0.000  0.000
   435H     0.02904  0.08969   0.971  0.000  0.000
   436H     0.02586  0.08790   0.974  0.000  0.000
   437H     0.03310  0.09530   0.967  0.000  0.000
   438H     0.02931  0.09004   0.971  0.000  0.000
   439H     0.03350  0.09570   0.967  0.000  0.000
   440H     0.02466  0.08659   0.975  0.000  0.000
   441H     0.02398  0.08444   0.976  0.000  0.000
   442H     0.01904  0.07721   0.981  0.000  0.000
   443H     0.01382  0.07258   0.986  0.000  0.000
   444H     0.01635  0.07472   0.984  0.000  0.000

Wiberg/Mayer (AO) data.
largest (>0.10) Wiberg bond orders for each atom

 ---------------------------------------------------------------------------
     #   Z sym  total        # sym  WBO       # sym  WBO       # sym  WBO
 ---------------------------------------------------------------------------
     1   6 C    3.807 --    41 C    1.382     2 C    1.371    43 H    0.997
     2   6 C    3.925 --     1 C    1.371     3 C    1.242     6 N    1.230
     3   6 C    3.834 --     4 C    1.595     2 C    1.242    44 H    0.994
     4   6 C    3.823 --     3 C    1.595     5 C    1.254    45 H    1.000
     5   6 C    3.895 --     7 C    1.342     4 C    1.254     6 N    1.227
     6   7 N    3.241 --     2 C    1.230     5 C    1.227    46 H    0.962
     7   6 C    3.839 --    17 C    1.361     5 C    1.342     8 C    1.060
     8   6 C    3.880 --    16 C    1.410     9 C    1.408     7 C    1.060
     9   6 C    3.868 --    10 C    1.473     8 C    1.408    47 H    0.989
    10   6 C    3.847 --     9 C    1.473    11 C    1.376    48 H    0.992
    11   6 C    3.905 --    15 C    1.376    10 C    1.376    12 N    1.138
    12   7 N    3.005 --    11 C    1.138    14 C    0.967    13 C    0.966
    13   6 C    3.910 --    51 H    1.003    50 H    1.002    49 H    1.000
                            12 N    0.966
    14   6 C    3.910 --    53 H    1.003    54 H    1.003    52 H    0.999
                            12 N    0.967
    15   6 C    3.847 --    16 C    1.471    11 C    1.376    55 H    0.992
    16   6 C    3.865 --    15 C    1.471     8 C    1.410    56 H    0.990
    17   6 C    3.921 --     7 C    1.361    20 N    1.358    18 C    1.167
    18   6 C    3.830 --    19 C    1.683    17 C    1.167    57 H    0.999
    19   6 C    3.829 --    18 C    1.683    21 C    1.174    58 H    0.999
    20   7 N    2.560 --    21 C    1.414    17 C    1.358
    21   6 C    3.940 --    20 N    1.414    22 C    1.285    19 C    1.174
    22   6 C    3.839 --    23 C    1.287    21 C    1.285   147 C    1.218
    23   6 C    3.903 --    22 C    1.287    24 C    1.274    27 N    1.249
    24   6 C    3.813 --    25 C    1.577    23 C    1.274    59 H    0.998
    25   6 C    3.810 --    24 C    1.577    26 C    1.264    60 H    0.999
    26   6 C    3.891 --    28 C    1.336    25 C    1.264    27 N    1.226
    27   7 N    3.255 --    23 C    1.249    26 C    1.226    61 H    0.962
    28   6 C    3.825 --    38 C    1.358    26 C    1.336    29 C    1.062
    29   6 C    3.879 --    30 C    1.408    37 C    1.407    28 C    1.062
    30   6 C    3.867 --    31 C    1.472    29 C    1.408    62 H    0.990
    31   6 C    3.846 --    30 C    1.472    32 C    1.376    63 H    0.992
    32   6 C    3.904 --    31 C    1.376    36 C    1.374    33 N    1.140
    33   7 N    3.007 --    32 C    1.140    35 C    0.966    34 C    0.965
    34   6 C    3.908 --    66 H    1.003    64 H    1.002    65 H    0.999
                            33 N    0.965
    35   6 C    3.909 --    67 H    1.003    68 H    1.002    69 H    0.999
                            33 N    0.966
    36   6 C    3.847 --    37 C    1.473    32 C    1.374    70 H    0.992
    37   6 C    3.863 --    36 C    1.473    29 C    1.407    71 H    0.989
    38   6 C    3.943 --    42 N    1.379    28 C    1.358    39 C    1.156
    39   6 C    3.842 --    40 C    1.704    38 C    1.156    72 H    1.000
    40   6 C    3.858 --    39 C    1.704    41 C    1.149    73 H    0.994
    41   6 C    3.968 --     1 C    1.382    42 N    1.376    40 C    1.149
    42   7 N    2.547 --    38 C    1.379    41 C    1.376
    43   1 H    1.034 --     1 C    0.997
    44   1 H    1.018 --     3 C    0.994
    45   1 H    1.036 --     4 C    1.000
    46   1 H    1.084 --     6 N    0.962
    47   1 H    1.054 --     9 C    0.989
    48   1 H    1.039 --    10 C    0.992
    49   1 H    1.027 --    13 C    1.000
    50   1 H    1.036 --    13 C    1.002
    51   1 H    1.056 --    13 C    1.003
    52   1 H    1.027 --    14 C    0.999
    53   1 H    1.057 --    14 C    1.003
    54   1 H    1.036 --    14 C    1.003
    55   1 H    1.040 --    15 C    0.992
    56   1 H    1.050 --    16 C    0.990
    57   1 H    1.041 --    18 C    0.999
    58   1 H    1.039 --    19 C    0.999
    59   1 H    1.033 --    24 C    0.998
    60   1 H    1.035 --    25 C    0.999
    61   1 H    1.088 --    27 N    0.962
    62   1 H    1.054 --    30 C    0.990
    63   1 H    1.039 --    31 C    0.992
    64   1 H    1.035 --    34 C    1.002
    65   1 H    1.027 --    34 C    0.999
    66   1 H    1.057 --    34 C    1.003
    67   1 H    1.057 --    35 C    1.003
    68   1 H    1.036 --    35 C    1.002
    69   1 H    1.026 --    35 C    0.999
    70   1 H    1.040 --    36 C    0.992
    71   1 H    1.051 --    37 C    0.989
    72   1 H    1.041 --    39 C    1.000
    73   1 H    1.021 --    40 C    0.994
    74   6 C    3.807 --   114 C    1.383    75 C    1.371   116 H    0.997
    75   6 C    3.925 --    74 C    1.371    76 C    1.242    79 N    1.230
    76   6 C    3.836 --    77 C    1.595    75 C    1.242   117 H    0.994
    77   6 C    3.823 --    76 C    1.595    78 C    1.254   118 H    1.000
    78   6 C    3.895 --    80 C    1.342    77 C    1.254    79 N    1.227
    79   7 N    3.242 --    75 C    1.230    78 C    1.227   119 H    0.962
    80   6 C    3.840 --    90 C    1.366    78 C    1.342    81 C    1.054
    81   6 C    3.880 --    89 C    1.412    82 C    1.412    80 C    1.054
    82   6 C    3.870 --    83 C    1.470    81 C    1.412   120 H    0.989
    83   6 C    3.846 --    82 C    1.470    84 C    1.377   121 H    0.992
    84   6 C    3.906 --    83 C    1.377    88 C    1.377    85 N    1.137
    85   7 N    3.005 --    84 C    1.137    86 C    0.967    87 C    0.966
    86   6 C    3.910 --   124 H    1.003   123 H    1.002   122 H    1.000
                            85 N    0.967
    87   6 C    3.910 --   126 H    1.003   127 H    1.003   125 H    0.999
                            85 N    0.966
    88   6 C    3.848 --    89 C    1.470    84 C    1.377   128 H    0.992
    89   6 C    3.867 --    88 C    1.470    81 C    1.412   129 H    0.989
    90   6 C    3.921 --    80 C    1.366    93 N    1.356    91 C    1.166
    91   6 C    3.831 --    92 C    1.687    90 C    1.166   130 H    0.999
    92   6 C    3.830 --    91 C    1.687    94 C    1.171   131 H    0.999
    93   7 N    2.562 --    94 C    1.416    90 C    1.356
    94   6 C    3.941 --    93 N    1.416    95 C    1.287    92 C    1.171
    95   6 C    3.840 --    94 C    1.287    96 C    1.287   156 C    1.218
    96   6 C    3.900 --    95 C    1.287    97 C    1.272   100 N    1.251
    97   6 C    3.814 --    98 C    1.580    96 C    1.272   132 H    0.998
    98   6 C    3.809 --    97 C    1.580    99 C    1.263   133 H    0.999
    99   6 C    3.890 --   101 C    1.340    98 C    1.263   100 N    1.224
   100   7 N    3.256 --    96 C    1.251    99 C    1.224   134 H    0.962
   101   6 C    3.825 --   111 C    1.359    99 C    1.340   102 C    1.056
   102   6 C    3.880 --   110 C    1.411   103 C    1.410   101 C    1.056
   103   6 C    3.870 --   104 C    1.471   102 C    1.410   135 H    0.989
   104   6 C    3.847 --   103 C    1.471   105 C    1.377   136 H    0.992
   105   6 C    3.905 --   104 C    1.377   109 C    1.376   106 N    1.138
   106   7 N    3.005 --   105 C    1.138   108 C    0.967   107 C    0.966
   107   6 C    3.909 --   139 H    1.003   137 H    1.002   138 H    0.999
                           106 N    0.966
   108   6 C    3.910 --   140 H    1.003   141 H    1.002   142 H    0.999
                           106 N    0.967
   109   6 C    3.847 --   110 C    1.471   105 C    1.376   143 H    0.992
   110   6 C    3.865 --   109 C    1.471   102 C    1.411   144 H    0.989
   111   6 C    3.943 --   115 N    1.379   101 C    1.359   112 C    1.155
   112   6 C    3.842 --   113 C    1.704   111 C    1.155   145 H    1.000
   113   6 C    3.860 --   112 C    1.704   114 C    1.149   146 H    0.994
   114   6 C    3.968 --    74 C    1.383   115 N    1.376   113 C    1.149
   115   7 N    2.547 --   111 C    1.379   114 C    1.376
   116   1 H    1.034 --    74 C    0.997
   117   1 H    1.018 --    76 C    0.994
   118   1 H    1.035 --    77 C    1.000
   119   1 H    1.084 --    79 N    0.962
   120   1 H    1.053 --    82 C    0.989
   121   1 H    1.039 --    83 C    0.992
   122   1 H    1.027 --    86 C    1.000
   123   1 H    1.036 --    86 C    1.002
   124   1 H    1.056 --    86 C    1.003
   125   1 H    1.028 --    87 C    0.999
   126   1 H    1.057 --    87 C    1.003
   127   1 H    1.035 --    87 C    1.003
   128   1 H    1.040 --    88 C    0.992
   129   1 H    1.051 --    89 C    0.989
   130   1 H    1.040 --    91 C    0.999
   131   1 H    1.039 --    92 C    0.999
   132   1 H    1.036 --    97 C    0.998
   133   1 H    1.034 --    98 C    0.999
   134   1 H    1.088 --   100 N    0.962
   135   1 H    1.054 --   103 C    0.989
   136   1 H    1.039 --   104 C    0.992
   137   1 H    1.035 --   107 C    1.002
   138   1 H    1.027 --   107 C    0.999
   139   1 H    1.057 --   107 C    1.003
   140   1 H    1.057 --   108 C    1.003
   141   1 H    1.036 --   108 C    1.002
   142   1 H    1.026 --   108 C    0.999
   143   1 H    1.039 --   109 C    0.992
   144   1 H    1.051 --   110 C    0.989
   145   1 H    1.041 --   112 C    1.000
   146   1 H    1.021 --   113 C    0.994
   147   6 C    3.757 --   148 C    2.607    22 C    1.218
   148   6 C    3.761 --   147 C    2.607   157 C    1.220
   149   6 C    3.757 --   150 C    2.595   178 C    1.229
   150   6 C    3.757 --   149 C    2.595   229 C    1.229
   151   6 C    3.757 --   152 C    2.594   250 C    1.230
   152   6 C    3.757 --   151 C    2.594   301 C    1.230
   153   6 C    3.757 --   154 C    2.594   322 C    1.230
   154   6 C    3.757 --   153 C    2.594   373 C    1.230
   155   6 C    3.761 --   156 C    2.606   394 C    1.221
   156   6 C    3.756 --   155 C    2.606    95 C    1.218
   157   6 C    3.820 --   197 C    1.283   158 C    1.281   148 C    1.220
   158   6 C    3.903 --   157 C    1.281   159 C    1.276   162 N    1.253
   159   6 C    3.807 --   160 C    1.574   158 C    1.276   199 H    0.999
   160   6 C    3.812 --   159 C    1.574   161 C    1.267   200 H    1.000
   161   6 C    3.884 --   163 C    1.337   160 C    1.267   162 N    1.222
   162   7 N    3.243 --   158 C    1.253   161 C    1.222   201 H    0.963
   163   6 C    3.828 --   173 C    1.370   161 C    1.337   164 C    1.056
   164   6 C    3.880 --   165 C    1.412   172 C    1.411   163 C    1.056
   165   6 C    3.864 --   166 C    1.471   164 C    1.412   202 H    0.989
   166   6 C    3.846 --   165 C    1.471   167 C    1.377   203 H    0.992
   167   6 C    3.905 --   171 C    1.378   166 C    1.377   168 N    1.137
   168   7 N    3.004 --   167 C    1.137   170 C    0.967   169 C    0.966
   169   6 C    3.910 --   205 H    1.003   204 H    1.003   206 H    0.999
                           168 N    0.966
   170   6 C    3.910 --   207 H    1.003   209 H    1.003   208 H    1.000
                           168 N    0.967
   171   6 C    3.846 --   172 C    1.471   167 C    1.378   210 H    0.992
   172   6 C    3.870 --   171 C    1.471   164 C    1.411   211 H    0.989
   173   6 C    3.922 --   163 C    1.370   176 N    1.354   174 C    1.166
   174   6 C    3.831 --   175 C    1.684   173 C    1.166   212 H    1.000
   175   6 C    3.827 --   174 C    1.684   177 C    1.174   213 H    0.999
   176   7 N    2.544 --   177 C    1.419   173 C    1.354
   177   6 C    3.942 --   176 N    1.419   178 C    1.281   175 C    1.174
   178   6 C    3.822 --   177 C    1.281   179 C    1.278   149 C    1.229
   179   6 C    3.902 --   180 C    1.279   178 C    1.278   183 N    1.252
   180   6 C    3.810 --   181 C    1.570   179 C    1.279   214 H    0.999
   181   6 C    3.812 --   180 C    1.570   182 C    1.270   215 H    1.000
   182   6 C    3.884 --   184 C    1.330   181 C    1.270   183 N    1.226
   183   7 N    3.246 --   179 C    1.252   182 C    1.226   216 H    0.963
   184   6 C    3.827 --   194 C    1.378   182 C    1.330   185 C    1.056
   185   6 C    3.879 --   193 C    1.412   186 C    1.411   184 C    1.056
   186   6 C    3.866 --   187 C    1.471   185 C    1.411   217 H    0.989
   187   6 C    3.847 --   186 C    1.471   188 C    1.376   218 H    0.992
   188   6 C    3.905 --   192 C    1.378   187 C    1.376   189 N    1.137
   189   7 N    3.005 --   188 C    1.137   190 C    0.967   191 C    0.966
   190   6 C    3.910 --   220 H    1.003   221 H    1.003   219 H    1.000
                           189 N    0.967
   191   6 C    3.909 --   224 H    1.003   223 H    1.003   222 H    0.999
                           189 N    0.966
   192   6 C    3.846 --   193 C    1.470   188 C    1.378   225 H    0.992
   193   6 C    3.868 --   192 C    1.470   185 C    1.412   226 H    0.990
   194   6 C    3.923 --   184 C    1.378   198 N    1.350   195 C    1.165
   195   6 C    3.835 --   196 C    1.688   194 C    1.165   227 H    1.000
   196   6 C    3.827 --   195 C    1.688   197 C    1.172   228 H    0.999
   197   6 C    3.944 --   198 N    1.421   157 C    1.283   196 C    1.172
   198   7 N    2.543 --   197 C    1.421   194 C    1.350
   199   1 H    1.033 --   159 C    0.999
   200   1 H    1.035 --   160 C    1.000
   201   1 H    1.084 --   162 N    0.963
   202   1 H    1.051 --   165 C    0.989
   203   1 H    1.039 --   166 C    0.992
   204   1 H    1.036 --   169 C    1.003
   205   1 H    1.057 --   169 C    1.003
   206   1 H    1.028 --   169 C    0.999
   207   1 H    1.056 --   170 C    1.003
   208   1 H    1.026 --   170 C    1.000
   209   1 H    1.036 --   170 C    1.003
   210   1 H    1.039 --   171 C    0.992
   211   1 H    1.053 --   172 C    0.989
   212   1 H    1.043 --   174 C    1.000
   213   1 H    1.037 --   175 C    0.999
   214   1 H    1.031 --   180 C    0.999
   215   1 H    1.038 --   181 C    1.000
   216   1 H    1.084 --   183 N    0.963
   217   1 H    1.050 --   186 C    0.989
   218   1 H    1.040 --   187 C    0.992
   219   1 H    1.026 --   190 C    1.000
   220   1 H    1.057 --   190 C    1.003
   221   1 H    1.036 --   190 C    1.003
   222   1 H    1.027 --   191 C    0.999
   223   1 H    1.036 --   191 C    1.003
   224   1 H    1.057 --   191 C    1.003
   225   1 H    1.039 --   192 C    0.992
   226   1 H    1.054 --   193 C    0.990
   227   1 H    1.042 --   195 C    1.000
   228   1 H    1.036 --   196 C    0.999
   229   6 C    3.822 --   269 C    1.279   230 C    1.277   150 C    1.229
   230   6 C    3.903 --   231 C    1.279   229 C    1.277   234 N    1.253
   231   6 C    3.808 --   232 C    1.569   230 C    1.279   271 H    0.999
   232   6 C    3.812 --   231 C    1.569   233 C    1.271   272 H    0.999
   233   6 C    3.885 --   235 C    1.331   232 C    1.271   234 N    1.224
   234   7 N    3.244 --   230 C    1.253   233 C    1.224   273 H    0.963
   235   6 C    3.827 --   245 C    1.369   233 C    1.331   236 C    1.064
   236   6 C    3.879 --   237 C    1.408   244 C    1.408   235 C    1.064
   237   6 C    3.863 --   238 C    1.473   236 C    1.408   274 H    0.989
   238   6 C    3.847 --   237 C    1.473   239 C    1.375   275 H    0.992
   239   6 C    3.903 --   243 C    1.376   238 C    1.375   240 N    1.138
   240   7 N    3.004 --   239 C    1.138   242 C    0.967   241 C    0.966
   241   6 C    3.909 --   277 H    1.003   276 H    1.003   278 H    0.999
                           240 N    0.966
   242   6 C    3.910 --   279 H    1.003   281 H    1.003   280 H    1.000
                           240 N    0.967
   243   6 C    3.846 --   244 C    1.473   239 C    1.376   282 H    0.992
   244   6 C    3.867 --   243 C    1.473   236 C    1.408   283 H    0.990
   245   6 C    3.922 --   235 C    1.369   248 N    1.353   246 C    1.167
   246   6 C    3.832 --   247 C    1.683   245 C    1.167   284 H    1.000
   247   6 C    3.826 --   246 C    1.683   249 C    1.175   285 H    0.999
   248   7 N    2.541 --   249 C    1.419   245 C    1.353
   249   6 C    3.941 --   248 N    1.419   250 C    1.280   247 C    1.175
   250   6 C    3.822 --   249 C    1.280   251 C    1.276   151 C    1.230
   251   6 C    3.903 --   252 C    1.280   250 C    1.276   255 N    1.253
   252   6 C    3.808 --   253 C    1.569   251 C    1.280   286 H    0.999
   253   6 C    3.812 --   252 C    1.569   254 C    1.271   287 H    0.999
   254   6 C    3.885 --   256 C    1.330   253 C    1.271   255 N    1.224
   255   7 N    3.245 --   251 C    1.253   254 C    1.224   288 H    0.963
   256   6 C    3.827 --   266 C    1.370   254 C    1.330   257 C    1.065
   257   6 C    3.879 --   258 C    1.407   265 C    1.407   256 C    1.065
   258   6 C    3.863 --   259 C    1.473   257 C    1.407   289 H    0.989
   259   6 C    3.846 --   258 C    1.473   260 C    1.375   290 H    0.992
   260   6 C    3.903 --   264 C    1.376   259 C    1.375   261 N    1.138
   261   7 N    3.005 --   260 C    1.138   262 C    0.967   263 C    0.966
   262   6 C    3.910 --   292 H    1.003   293 H    1.003   291 H    0.999
                           261 N    0.967
   263   6 C    3.909 --   296 H    1.003   295 H    1.003   294 H    0.999
                           261 N    0.966
   264   6 C    3.846 --   265 C    1.473   260 C    1.376   297 H    0.992
   265   6 C    3.867 --   264 C    1.473   257 C    1.407   298 H    0.990
   266   6 C    3.922 --   256 C    1.370   270 N    1.352   267 C    1.167
   267   6 C    3.832 --   268 C    1.683   266 C    1.167   299 H    1.000
   268   6 C    3.825 --   267 C    1.683   269 C    1.175   300 H    0.999
   269   6 C    3.941 --   270 N    1.420   229 C    1.279   268 C    1.175
   270   7 N    2.541 --   269 C    1.420   266 C    1.352
   271   1 H    1.031 --   231 C    0.999
   272   1 H    1.036 --   232 C    0.999
   273   1 H    1.085 --   234 N    0.963
   274   1 H    1.050 --   237 C    0.989
   275   1 H    1.039 --   238 C    0.992
   276   1 H    1.036 --   241 C    1.003
   277   1 H    1.057 --   241 C    1.003
   278   1 H    1.027 --   241 C    0.999
   279   1 H    1.056 --   242 C    1.003
   280   1 H    1.026 --   242 C    1.000
   281   1 H    1.036 --   242 C    1.003
   282   1 H    1.039 --   243 C    0.992
   283   1 H    1.054 --   244 C    0.990
   284   1 H    1.042 --   246 C    1.000
   285   1 H    1.037 --   247 C    0.999
   286   1 H    1.031 --   252 C    0.999
   287   1 H    1.037 --   253 C    0.999
   288   1 H    1.085 --   255 N    0.963
   289   1 H    1.050 --   258 C    0.989
   290   1 H    1.039 --   259 C    0.992
   291   1 H    1.026 --   262 C    0.999
   292   1 H    1.056 --   262 C    1.003
   293   1 H    1.036 --   262 C    1.003
   294   1 H    1.027 --   263 C    0.999
   295   1 H    1.036 --   263 C    1.003
   296   1 H    1.057 --   263 C    1.003
   297   1 H    1.039 --   264 C    0.992
   298   1 H    1.054 --   265 C    0.990
   299   1 H    1.042 --   267 C    1.000
   300   1 H    1.037 --   268 C    0.999
   301   6 C    3.822 --   341 C    1.279   302 C    1.277   152 C    1.230
   302   6 C    3.903 --   303 C    1.279   301 C    1.277   306 N    1.253
   303   6 C    3.808 --   304 C    1.569   302 C    1.279   343 H    0.999
   304   6 C    3.811 --   303 C    1.569   305 C    1.271   344 H    0.999
   305   6 C    3.885 --   307 C    1.330   304 C    1.271   306 N    1.224
   306   7 N    3.245 --   302 C    1.253   305 C    1.224   345 H    0.963
   307   6 C    3.827 --   317 C    1.371   305 C    1.330   308 C    1.063
   308   6 C    3.879 --   309 C    1.408   316 C    1.408   307 C    1.063
   309   6 C    3.864 --   310 C    1.473   308 C    1.408   346 H    0.989
   310   6 C    3.846 --   309 C    1.473   311 C    1.376   347 H    0.992
   311   6 C    3.903 --   315 C    1.376   310 C    1.376   312 N    1.138
   312   7 N    3.005 --   311 C    1.138   314 C    0.967   313 C    0.966
   313   6 C    3.909 --   349 H    1.003   348 H    1.003   350 H    0.999
                           312 N    0.966
   314   6 C    3.910 --   351 H    1.003   353 H    1.003   352 H    0.999
                           312 N    0.967
   315   6 C    3.846 --   316 C    1.473   311 C    1.376   354 H    0.992
   316   6 C    3.867 --   315 C    1.473   308 C    1.408   355 H    0.990
   317   6 C    3.922 --   307 C    1.371   320 N    1.352   318 C    1.167
   318   6 C    3.832 --   319 C    1.683   317 C    1.167   356 H    1.000
   319   6 C    3.826 --   318 C    1.683   321 C    1.174   357 H    0.999
   320   7 N    2.541 --   321 C    1.420   317 C    1.352
   321   6 C    3.942 --   320 N    1.420   322 C    1.279   319 C    1.174
   322   6 C    3.822 --   321 C    1.279   323 C    1.276   153 C    1.230
   323   6 C    3.902 --   324 C    1.280   322 C    1.276   327 N    1.254
   324   6 C    3.808 --   325 C    1.569   323 C    1.280   358 H    0.999
   325   6 C    3.811 --   324 C    1.569   326 C    1.271   359 H    0.999
   326   6 C    3.885 --   328 C    1.330   325 C    1.271   327 N    1.224
   327   7 N    3.244 --   323 C    1.254   326 C    1.224   360 H    0.963
   328   6 C    3.827 --   338 C    1.370   326 C    1.330   329 C    1.064
   329   6 C    3.879 --   337 C    1.408   330 C    1.407   328 C    1.064
   330   6 C    3.863 --   331 C    1.473   329 C    1.407   361 H    0.989
   331   6 C    3.847 --   330 C    1.473   332 C    1.375   362 H    0.992
   332   6 C    3.903 --   336 C    1.376   331 C    1.375   333 N    1.138
   333   7 N    3.004 --   332 C    1.138   334 C    0.967   335 C    0.966
   334   6 C    3.910 --   364 H    1.003   365 H    1.003   363 H    1.000
                           333 N    0.967
   335   6 C    3.909 --   368 H    1.003   367 H    1.003   366 H    0.999
                           333 N    0.966
   336   6 C    3.846 --   337 C    1.472   332 C    1.376   369 H    0.992
   337   6 C    3.867 --   336 C    1.472   329 C    1.408   370 H    0.990
   338   6 C    3.922 --   328 C    1.370   342 N    1.352   339 C    1.167
   339   6 C    3.832 --   340 C    1.683   338 C    1.167   371 H    1.000
   340   6 C    3.826 --   339 C    1.683   341 C    1.175   372 H    1.000
   341   6 C    3.942 --   342 N    1.420   301 C    1.279   340 C    1.175
   342   7 N    2.541 --   341 C    1.420   338 C    1.352
   343   1 H    1.031 --   303 C    0.999
   344   1 H    1.036 --   304 C    0.999
   345   1 H    1.085 --   306 N    0.963
   346   1 H    1.050 --   309 C    0.989
   347   1 H    1.039 --   310 C    0.992
   348   1 H    1.036 --   313 C    1.003
   349   1 H    1.057 --   313 C    1.003
   350   1 H    1.027 --   313 C    0.999
   351   1 H    1.056 --   314 C    1.003
   352   1 H    1.026 --   314 C    0.999
   353   1 H    1.036 --   314 C    1.003
   354   1 H    1.039 --   315 C    0.992
   355   1 H    1.054 --   316 C    0.990
   356   1 H    1.042 --   318 C    1.000
   357   1 H    1.037 --   319 C    0.999
   358   1 H    1.031 --   324 C    0.999
   359   1 H    1.037 --   325 C    0.999
   360   1 H    1.085 --   327 N    0.963
   361   1 H    1.050 --   330 C    0.989
   362   1 H    1.039 --   331 C    0.992
   363   1 H    1.026 --   334 C    1.000
   364   1 H    1.056 --   334 C    1.003
   365   1 H    1.036 --   334 C    1.003
   366   1 H    1.028 --   335 C    0.999
   367   1 H    1.036 --   335 C    1.003
   368   1 H    1.057 --   335 C    1.003
   369   1 H    1.039 --   336 C    0.992
   370   1 H    1.054 --   337 C    0.990
   371   1 H    1.042 --   339 C    1.000
   372   1 H    1.037 --   340 C    1.000
   373   6 C    3.822 --   413 C    1.279   374 C    1.277   154 C    1.230
   374   6 C    3.902 --   375 C    1.280   373 C    1.277   378 N    1.252
   375   6 C    3.809 --   376 C    1.569   374 C    1.280   415 H    0.999
   376   6 C    3.811 --   375 C    1.569   377 C    1.271   416 H    0.999
   377   6 C    3.885 --   379 C    1.329   376 C    1.271   378 N    1.225
   378   7 N    3.245 --   374 C    1.252   377 C    1.225   417 H    0.963
   379   6 C    3.826 --   389 C    1.370   377 C    1.329   380 C    1.064
   380   6 C    3.879 --   381 C    1.408   388 C    1.407   379 C    1.064
   381   6 C    3.863 --   382 C    1.473   380 C    1.408   418 H    0.989
   382   6 C    3.846 --   381 C    1.473   383 C    1.375   419 H    0.992
   383   6 C    3.903 --   387 C    1.376   382 C    1.375   384 N    1.139
   384   7 N    3.005 --   383 C    1.139   386 C    0.967   385 C    0.966
   385   6 C    3.909 --   421 H    1.003   420 H    1.003   422 H    0.999
                           384 N    0.966
   386   6 C    3.910 --   423 H    1.003   425 H    1.003   424 H    0.999
                           384 N    0.967
   387   6 C    3.846 --   388 C    1.473   383 C    1.376   426 H    0.992
   388   6 C    3.867 --   387 C    1.473   380 C    1.407   427 H    0.990
   389   6 C    3.923 --   379 C    1.370   392 N    1.353   390 C    1.167
   390   6 C    3.832 --   391 C    1.684   389 C    1.167   428 H    1.000
   391   6 C    3.825 --   390 C    1.684   393 C    1.174   429 H    0.999
   392   7 N    2.539 --   393 C    1.417   389 C    1.353
   393   6 C    3.942 --   392 N    1.417   394 C    1.282   391 C    1.174
   394   6 C    3.819 --   393 C    1.282   395 C    1.279   155 C    1.221
   395   6 C    3.905 --   394 C    1.279   396 C    1.278   399 N    1.252
   396   6 C    3.806 --   397 C    1.570   395 C    1.278   430 H    0.998
   397   6 C    3.812 --   396 C    1.570   398 C    1.270   431 H    0.999
   398   6 C    3.885 --   400 C    1.332   397 C    1.270   399 N    1.223
   399   7 N    3.243 --   395 C    1.252   398 C    1.223   432 H    0.963
   400   6 C    3.828 --   410 C    1.368   398 C    1.332   401 C    1.064
   401   6 C    3.879 --   409 C    1.408   402 C    1.407   400 C    1.064
   402   6 C    3.863 --   403 C    1.473   401 C    1.407   433 H    0.989
   403   6 C    3.847 --   402 C    1.473   404 C    1.375   434 H    0.992
   404   6 C    3.903 --   408 C    1.376   403 C    1.375   405 N    1.139
   405   7 N    3.005 --   404 C    1.139   406 C    0.967   407 C    0.966
   406   6 C    3.909 --   436 H    1.003   437 H    1.003   435 H    1.000
                           405 N    0.967
   407   6 C    3.909 --   440 H    1.003   439 H    1.003   438 H    0.999
                           405 N    0.966
   408   6 C    3.846 --   409 C    1.473   404 C    1.376   441 H    0.992
   409   6 C    3.866 --   408 C    1.473   401 C    1.408   442 H    0.990
   410   6 C    3.921 --   400 C    1.368   414 N    1.353   411 C    1.168
   411   6 C    3.831 --   412 C    1.682   410 C    1.168   443 H    1.000
   412   6 C    3.826 --   411 C    1.682   413 C    1.175   444 H    0.999
   413   6 C    3.941 --   414 N    1.419   373 C    1.279   412 C    1.175
   414   7 N    2.543 --   413 C    1.419   410 C    1.353
   415   1 H    1.031 --   375 C    0.999
   416   1 H    1.036 --   376 C    0.999
   417   1 H    1.085 --   378 N    0.963
   418   1 H    1.050 --   381 C    0.989
   419   1 H    1.039 --   382 C    0.992
   420   1 H    1.036 --   385 C    1.003
   421   1 H    1.057 --   385 C    1.003
   422   1 H    1.027 --   385 C    0.999
   423   1 H    1.057 --   386 C    1.003
   424   1 H    1.026 --   386 C    0.999
   425   1 H    1.036 --   386 C    1.003
   426   1 H    1.040 --   387 C    0.992
   427   1 H    1.055 --   388 C    0.990
   428   1 H    1.042 --   390 C    1.000
   429   1 H    1.038 --   391 C    0.999
   430   1 H    1.032 --   396 C    0.998
   431   1 H    1.037 --   397 C    0.999
   432   1 H    1.085 --   399 N    0.963
   433   1 H    1.050 --   402 C    0.989
   434   1 H    1.040 --   403 C    0.992
   435   1 H    1.026 --   406 C    1.000
   436   1 H    1.056 --   406 C    1.003
   437   1 H    1.036 --   406 C    1.003
   438   1 H    1.028 --   407 C    0.999
   439   1 H    1.036 --   407 C    1.003
   440   1 H    1.057 --   407 C    1.003
   441   1 H    1.039 --   408 C    0.992
   442   1 H    1.054 --   409 C    0.990
   443   1 H    1.042 --   411 C    1.000
   444   1 H    1.037 --   412 C    0.999
 ---------------------------------------------------------------------------

Topologies differ in total number of bonds
Writing topology from bond orders to xtbtopo.mol

 dipole moment from electron density (au)
     X       Y       Z   
-237.4976  -0.9995   0.0411  total (Debye):  603.664


           -------------------------------------------------
          | TOTAL ENERGY             -785.670529297549 Eh   |
          | GRADIENT NORM               0.108669403055 Eh/α |
          | HOMO-LUMO GAP               0.125927674619 eV   |
           -------------------------------------------------
########################################################################
[WARNING] Runtime exception occurred
-1- restart_readRestart: Dimension missmatch in restart file.
########################################################################

------------------------------------------------------------------------
 * finished run on 2022/07/28 at 06:26:27.663     
------------------------------------------------------------------------
 total:
 * wall-time:     0 d,  0 h,  1 min,  5.914 sec
 *  cpu-time:     0 d,  0 h,  1 min,  5.621 sec
 * ratio c/w:     0.996 speedup
 SCF:
 * wall-time:     0 d,  0 h,  1 min,  4.589 sec
 *  cpu-time:     0 d,  0 h,  1 min,  4.325 sec
 * ratio c/w:     0.996 speedup

