256
 energy: -444.823078710997 gnorm: 1.168530609883 xtb: 6.5.1 (b24c23e)
Ni          42.85974499999999       -0.03607100000000        0.03725700000000
C           39.51815100000000        0.10721700000000        0.02775500000000
C           40.18041999999999        1.14629000000000       -0.48903500000000
C           39.52987200000000        2.29414600000000       -1.10922000000000
C           40.47008700000000        3.14263200000000       -1.48166400000000
C           41.77500999999999        2.58176700000000       -1.10479700000000
N           41.59785600000000        1.30826200000000       -0.48303400000000
C           42.96713200000000        3.18388200000000       -1.29743500000000
C           43.01685500000000        4.52941400000000       -1.91415600000000
C           43.57379500000000        4.69739300000000       -3.19083800000000
C           43.63705300000000        5.96839800000000       -3.76949500000000
C           43.14804600000000        7.08493700000000       -3.07656500000000
N           43.21295599999999        8.38475400000000       -3.66907400000000
C           42.59699600000000        6.91903100000000       -1.79801100000000
C           42.53408200000000        5.64868000000000       -1.21799600000000
C           44.25831900000000        2.55875300000000       -0.90736700000000
C           45.54177499999999        3.27139400000000       -0.90119700000000
C           46.47628900000000        2.41602500000000       -0.53931000000000
N           44.40098199999999        1.31686400000000       -0.55844900000000
C           45.79617500000000        1.14763200000000       -0.30778100000000
C           46.39037300000000       -0.01050300000000        0.02262600000000
C           45.62679000000000       -1.25651400000000        0.25543000000000
C           46.15731100000000       -2.47269900000000        0.23557900000000
C           45.11441500000000       -3.40429900000000        0.61932300000000
C           44.01678100000000       -2.69422000000000        0.85309200000000
N           44.25062700000000       -1.30237700000000        0.63266600000000
C           42.73816700000000       -3.26524300000000        1.34860200000000
C           42.76098699999999       -4.60323000000000        1.98851200000000
C           43.49993900000000       -4.80719500000000        3.16404200000000
C           43.54091600000000       -6.07085000000000        3.76050300000000
C           42.84873300000000       -7.14592000000000        3.18556300000000
N           42.89113100000000       -8.43827500000000        3.79617000000000
C           42.11727299999999       -6.94635900000000        2.00635600000000
C           42.07622100000000       -5.68340800000000        1.40854400000000
C           41.57610999999999       -2.59413300000000        1.23251300000000
C           40.26877900000000       -3.03676800000000        1.71445800000000
C           39.40711600000000       -2.11018300000000        1.34175100000000
C           40.15557400000000       -1.07135400000000        0.63610600000000
N           41.42043400000000       -1.34281300000000        0.56632100000000
H           38.43478899999999        0.12518000000000        0.00429600000000
H           38.46656100000000        2.43768800000000       -1.25246900000000
H           40.28228700000000        4.08450000000000       -1.98025800000000
H           43.95685699999999        3.84377400000000       -3.73663100000000
H           44.06740100000000        6.08332100000000       -4.75635500000000
H           43.62228500000000        8.51869900000000       -4.62058500000000
H           42.85196499999999        9.22265700000000       -3.16066600000000
H           42.21880300000000        7.77346600000000       -1.25101300000000
H           42.11140400000000        5.53571800000000       -0.22712800000000
H           45.71269400000000        4.31179300000000       -1.14464600000000
H           47.53006299999999        2.64127200000000       -0.44317000000000
H           47.18299199999999       -2.72794700000000        0.00517100000000
H           45.22316099999999       -4.47627500000000        0.72149000000000
H           44.04092100000000       -3.98643400000000        3.61903200000000
H           44.11229500000000       -6.21240000000000        4.66924400000000
H           43.43412000000000       -8.59718500000000        4.67410700000000
H           42.37963000000000       -9.24560900000000        3.37492100000000
H           41.58220900000000       -7.76935100000000        1.54951500000000
H           41.51478300000000       -5.54683900000000        0.49237900000000
H           40.02694199999999       -3.93481800000000        2.26742200000000
H           38.34256300000000       -2.12642700000000        1.53514200000000
Ni          92.51646299999999        0.01582000000000        0.00939900000000
C           95.85805599999999       -0.07127000000000        0.12357800000000
C           95.19578799999998       -1.07612800000000        0.70410200000000
C           95.84633599999999       -2.22727000000000        1.31816600000000
C           94.90612100000000       -3.00651000000000        1.81959000000000
C           93.60119799999998       -2.38250100000000        1.56034100000000
N           93.77835200000000       -1.16062000000000        0.84242000000000
C           92.40907600000000       -2.87574800000000        1.95576300000000
C           92.35935300000000       -4.13322400000000        2.73650400000000
C           91.80241300000000       -5.29014600000000        2.17111400000000
C           91.73915499999998       -6.47471700000000        2.91076800000000
C           92.22816199999998       -6.51408000000000        4.22426000000000
N           92.16325200000000       -7.72611600000000        4.98027500000000
C           92.77921100000000       -5.35674300000000        4.79241200000000
C           92.84212599999999       -4.17140200000000        4.05405400000000
C           91.11788799999999       -2.20522800000000        1.65024400000000
C           89.83443200000001       -2.59383800000000        2.24763700000000
C           88.89991900000000       -1.81959300000000        1.73464100000000
N           90.97522599999999       -1.22823000000000        0.80792100000000
C           89.58003300000000       -0.92579500000000        0.80536800000000
C           88.98583499999999       -0.01050300000000        0.02262600000000
C           89.74941799999999        0.87199300000000       -0.88728900000000
C           89.21889700000000        1.52742000000000       -1.91194200000000
C           90.26179299999998        2.36200300000000       -2.47639800000000
C           91.35942699999998        2.16451100000000       -1.75538600000000
N           91.12558099999998        1.21175800000000       -0.71708300000000
C           92.63804000000000        2.89302200000000       -1.95755000000000
C           92.61521999999998        4.16565700000000       -2.71918900000000
C           91.87626800000000        5.25815200000000       -2.23968200000000
C           91.83529200000000        6.45350100000000       -2.96337300000000
C           92.52747500000000        6.56829500000000       -4.17710800000000
N           92.48507700000000        7.79129400000000       -4.91690400000000
C           93.25893499999999        5.47516900000000       -4.66231800000000
C           93.29998699999999        4.27908200000000       -3.93996000000000
C           93.80009799999999        2.42545600000000       -1.46232500000000
C           95.10742900000000        3.07172300000000       -1.56497200000000
C           95.96909099999999        2.24911100000000       -0.99859800000000
C           95.22063400000000        1.08697800000000       -0.52262500000000
N           93.95577400000001        1.17880100000000       -0.78744400000000
H           96.94141900000000       -0.10074900000000        0.12558900000000
H           96.90964699999999       -2.42597800000000        1.35865900000000
H           95.09392099999999       -3.94249300000000        2.32914700000000
H           91.41935099999999       -5.27341600000000        1.15806100000000
H           91.30880700000000       -7.36075900000000        2.46129000000000
H           91.75392300000000       -8.59320500000000        4.56618300000000
H           92.52424300000000       -7.76532400000000        5.95957200000000
H           93.15740499999998       -5.37292100000000        5.80681100000000
H           93.26480300000000       -3.28310200000000        4.50738100000000
H           89.66351400000001       -3.37160000000000        2.98029200000000
H           87.84614399999998       -1.86391600000000        1.97550400000000
H           88.19321600000001        1.47640800000000       -2.25199600000000
H           90.15304600000000        3.03945300000000       -3.31343500000000
H           91.33528699999999        5.18389200000000       -1.30418700000000
H           91.26391300000000        7.28914300000000       -2.57925100000000
H           91.94208799999998        8.61085200000000       -4.56427100000000
H           92.99657800000000        7.88625800000000       -5.82256400000000
H           93.79399900000000        5.54911900000000       -5.60069400000000
H           93.86142500000000        3.44000500000000       -4.33233500000000
H           95.34926599999999        4.02881200000000       -2.00796600000000
H           97.03364500000001        2.41927600000000       -0.90528400000000
C           52.55649800000000       -0.00940000000000        0.03111600000000
C           51.34755900000000       -0.02285500000000        0.02266800000000
C           49.92603000000000       -0.01403600000000        0.01068500000000
C           48.71435999999999       -0.00659700000000        0.02154800000000
C           53.97310200000000       -0.01607500000000        0.03164900000000
C           55.19379800000000       -0.00659700000000        0.02154800000000
C           68.29194800000000       -0.00940000000000        0.03111600000000
C           67.08300900000000       -0.02285500000000        0.02266800000000
C           65.66148000000000       -0.01403600000000        0.01068500000000
C           64.44981000000000       -0.00659700000000        0.02154800000000
C           69.70855200000000       -0.01607500000000        0.03164900000000
C           70.92924800000000       -0.00659700000000        0.02154800000000
C           84.02739799999999       -0.00940000000000        0.03111600000000
C           82.81845800000001       -0.02285500000000        0.02266800000000
C           81.39692900000000       -0.01403600000000        0.01068500000000
C           80.18526000000000       -0.00659700000000        0.02154800000000
C           85.44400200000000       -0.01607500000000        0.03164900000000
C           86.66469800000000       -0.00659700000000        0.02154800000000
Ni          59.85384200000000       -0.04461600000000        0.05554800000000
C           56.36965699999999        0.01168700000000       -0.02629600000000
C           57.02651700000000        1.12158300000000       -0.41024300000000
C           56.38179199999999        2.35366900000000       -0.87036200000000
C           57.31981500000000        3.24926600000000       -1.10487100000000
C           58.62266400000000        2.64147700000000       -0.81510300000000
N           58.44624600000000        1.29145600000000       -0.37759400000000
C           59.80669900000000        3.28383600000000       -0.90211400000000
C           59.82807799999999        4.70393100000000       -1.31623000000000
C           59.69440500000000        5.04722500000000       -2.67005200000000
C           59.71143199999999        6.38996700000000       -3.05917400000000
C           59.86502099999999        7.40135400000000       -2.09950000000000
N           59.88294699999999        8.77468100000000       -2.49828900000000
C           60.00067399999999        7.05726500000000       -0.74643400000000
C           59.98156900000000        5.71500900000000       -0.35606100000000
C           61.11018900000000        2.64002700000000       -0.59795600000000
C           62.38910300000000        3.36113100000000       -0.56350200000000
C           63.34059000000000        2.48438500000000       -0.31762300000000
N           61.27363099999999        1.37006200000000       -0.38949500000000
C           62.67787900000000        1.19190100000000       -0.20156300000000
C           63.29297000000000        0.01168700000000       -0.02629600000000
C           62.54761100000000       -1.26274000000000        0.06883500000000
C           63.09611300000000       -2.46237300000000       -0.07651000000000
C           62.06358999999999       -3.44288000000000        0.19367200000000
C           60.95368900000000       -2.77624200000000        0.48885900000000
N           61.16821300000000       -1.36655600000000        0.42089300000000
C           59.68847300000000       -3.41250900000000        0.93099900000000
C           59.74165599999999       -4.80052400000000        1.45076200000000
C           59.09669499999999       -5.84344600000000        0.76455800000000
C           59.16284300000000       -7.15256700000000        1.25084600000000
C           59.87848800000000       -7.43451100000000        2.42410000000000
N           59.94265200000000       -8.77315500000000        2.92371800000000
C           60.53172700000000       -6.39547400000000        3.10435200000000
C           60.46743500000000       -5.08635300000000        2.61774100000000
C           58.51252600000000       -2.75692700000000        0.88830500000000
C           57.22993100000000       -3.27077500000000        1.35792800000000
C           56.34166400000000       -2.33495200000000        1.09446800000000
C           57.04509999999999       -1.21457700000000        0.45974100000000
N           58.31485000000000       -1.45335900000000        0.33919600000000
H           55.32242900000000        2.53548000000000       -0.99424200000000
H           57.13041800000000        4.25991500000000       -1.44426000000000
H           59.57526900000000        4.27492500000000       -3.42057500000000
H           59.60548200000000        6.64212700000000       -4.10698800000000
H           59.78384100000000        9.04070600000000       -3.50338200000000
H           60.00044399999999        9.53489200000000       -1.79132600000000
H           60.12114700000000        7.82873800000000        0.00409600000000
H           60.08706300000000        5.46201300000000        0.69213300000000
H           62.54807900000000        4.42025100000000       -0.71690900000000
H           64.39565300000000        2.70919300000000       -0.23710600000000
H           64.12742400000000       -2.67848500000000       -0.32024600000000
H           62.18930800000000       -4.51804400000000        0.19205800000000
H           58.54552500000000       -5.64120800000000       -0.14625800000000
H           58.65823800000000       -7.94684800000000        0.71321000000000
H           60.47256400000000       -8.99327600000000        3.79689700000000
H           59.45729600000000       -9.55361700000000        2.42685200000000
H           61.09025300000000       -6.60003100000000        4.01042100000000
H           60.97805899999999       -4.29396000000000        3.15290100000000
H           57.02231099999999       -4.21835200000000        1.83782400000000
H           55.28722400000000       -2.40199900000000        1.32576900000000
Ni          75.58929200000000       -0.04461600000000        0.05554800000000
C           72.10510700000000        0.01168700000000       -0.02629600000000
C           72.76196700000000        1.12158300000000       -0.41024300000000
C           72.11724100000001        2.35366900000000       -0.87036200000000
C           73.05526500000001        3.24926600000000       -1.10487100000000
C           74.35811400000000        2.64147700000000       -0.81510300000000
N           74.18169600000000        1.29145600000000       -0.37759400000000
C           75.54214899999999        3.28383600000000       -0.90211400000000
C           75.56352800000001        4.70393100000000       -1.31623000000000
C           75.42985500000000        5.04722500000000       -2.67005200000000
C           75.44688200000000        6.38996700000000       -3.05917400000000
C           75.60047100000000        7.40135400000000       -2.09950000000000
N           75.61839700000000        8.77468100000000       -2.49828900000000
C           75.73612400000000        7.05726500000000       -0.74643400000000
C           75.71701899999998        5.71500900000000       -0.35606100000000
C           76.84563899999999        2.64002700000000       -0.59795600000000
C           78.12455300000001        3.36113100000000       -0.56350200000000
C           79.07604000000001        2.48438500000000       -0.31762300000000
N           77.00908099999999        1.37006200000000       -0.38949500000000
C           78.41332800000001        1.19190100000000       -0.20156300000000
C           79.02841999999998        0.01168700000000       -0.02629600000000
C           78.28306100000000       -1.26274000000000        0.06883500000000
C           78.83156200000001       -2.46237300000000       -0.07651000000000
C           77.79904000000001       -3.44288000000000        0.19367200000000
C           76.68913900000000       -2.77624200000000        0.48885900000000
N           76.90366299999999       -1.36655600000000        0.42089300000000
C           75.42392300000000       -3.41250900000000        0.93099900000000
C           75.47710600000001       -4.80052400000000        1.45076200000000
C           74.83214500000000       -5.84344600000000        0.76455800000000
C           74.89829300000000       -7.15256700000000        1.25084600000000
C           75.61393700000001       -7.43451100000000        2.42410000000000
N           75.67810199999998       -8.77315500000000        2.92371800000000
C           76.26717700000000       -6.39547400000000        3.10435200000000
C           76.20288499999998       -5.08635300000000        2.61774100000000
C           74.24797599999999       -2.75692700000000        0.88830500000000
C           72.96538099999998       -3.27077500000000        1.35792800000000
C           72.07711399999999       -2.33495200000000        1.09446800000000
C           72.78055000000001       -1.21457700000000        0.45974100000000
N           74.05029999999999       -1.45335900000000        0.33919600000000
H           71.05787900000000        2.53548000000000       -0.99424200000000
H           72.86586800000001        4.25991500000000       -1.44426000000000
H           75.31071900000001        4.27492500000000       -3.42057500000000
H           75.34093200000000        6.64212700000000       -4.10698800000000
H           75.51929000000000        9.04070600000000       -3.50338200000000
H           75.73589400000000        9.53489200000000       -1.79132600000000
H           75.85659699999999        7.82873800000000        0.00409600000000
H           75.82251300000000        5.46201300000000        0.69213300000000
H           78.28352799999999        4.42025100000000       -0.71690900000000
H           80.13110300000000        2.70919300000000       -0.23710600000000
H           79.86287400000001       -2.67848500000000       -0.32024600000000
H           77.92475799999998       -4.51804400000000        0.19205800000000
H           74.28097500000000       -5.64120800000000       -0.14625800000000
H           74.39368700000000       -7.94684800000000        0.71321000000000
H           76.20801299999999       -8.99327600000000        3.79689700000000
H           75.19274599999999       -9.55361700000000        2.42685200000000
H           76.82570300000000       -6.60003100000000        4.01042100000000
H           76.71350900000000       -4.29396000000000        3.15290100000000
H           72.75776100000000       -4.21835200000000        1.83782400000000
H           71.02267399999999       -2.40199900000000        1.32576900000000
256
 energy: -445.194658193473 gnorm: 0.462240173762 xtb: 6.5.1 (b24c23e)
Ni          42.86739540820346       -0.03126957031227        0.03606869789366
C           39.51873425330307        0.09381853795943        0.03503070595216
C           40.18750346782512        1.14670896042414       -0.48983737790490
C           39.52985335689822        2.28835401767599       -1.10656886986911
C           40.47924771668712        3.14381980819381       -1.48176821646275
C           41.77443989939030        2.57374685783349       -1.10237439310179
N           41.58566211075233        1.31635934883543       -0.48667303797505
C           42.98080078214844        3.18133343093701       -1.29451876856901
C           43.02091608364123        4.53137843707414       -1.91336890400002
C           43.57356695614127        4.70358430016019       -3.18896686435688
C           43.63570649540225        5.97015758191491       -3.76759809981467
C           43.14848000366650        7.09384382496318       -3.08063585615843
N           43.21268845510104        8.37984885836602       -3.66684072823044
C           42.59797011721730        6.91846557445623       -1.80073842537184
C           42.53505891104696        5.65090986154272       -1.22387254812307
C           44.25130704321487        2.56957915283624       -0.91268156737302
C           45.53006196349744        3.27795028623637       -0.90628823241946
C           46.47581774465328        2.41006959840032       -0.53744379130025
N           44.40734248813180        1.30941245325253       -0.55040165156936
C           45.80678668910075        1.14332829037587       -0.30571459634807
C           46.40266557644823       -0.02392780264010        0.02262753026218
C           45.62806574019127       -1.23967619612640        0.25899195647553
C           46.15922822159500       -2.49261954379403        0.23943252900105
C           45.13383626423180       -3.40599370202259        0.61726812480934
C           44.00705641301570       -2.67993097509462        0.85699571796758
N           44.25160127747968       -1.30239857359582        0.62533889427840
C           42.75059508539814       -3.25912018542238        1.34533247093418
C           42.76642766420360       -4.60305769109613        1.98531667609378
C           43.49932364791206       -4.81286607319930        3.16194763729306
C           43.53895967093487       -6.07196254023965        3.75873483020111
C           42.84902506211115       -7.15482066842086        3.18977990268214
N           42.89091339431505       -8.43315831671612        3.79376679895537
C           42.11875884723265       -6.94527362275970        2.00867424858340
C           42.07787517217719       -5.68462050583225        1.41418913970010
C           41.57632849308010       -2.59087094593123        1.23169220547931
C           40.27678828181009       -3.03610101843691        1.71263802819050
C           39.40005276263011       -2.10036554973874        1.33619442768094
C           40.13991192412873       -1.06302301718459        0.63171148205955
N           41.42679336991303       -1.34370420042524        0.57144306136858
H           38.43524774098522        0.12188423448810        0.00694366894567
H           38.46705278463285        2.43213394885278       -1.24966363907271
H           40.29012606609788        4.08493620975953       -1.97983642129313
H           43.95590706322257        3.84573523363917       -3.73520377247848
H           44.06699592012896        6.08368944535563       -4.75597919350687
H           43.61552446713059        8.51426630012680       -4.60404223141413
H           42.85775773330902        9.20675951909270       -3.16791942762348
H           42.21917665476871        7.77334310980357       -1.25153302990317
H           42.11259465040658        5.53573212749405       -0.22948981157852
H           45.70615128513237        4.31426590246561       -1.14650064144649
H           47.52918501373276        2.63428995908008       -0.44145571367900
H           47.18342782389283       -2.73250301488948        0.00557166715353
H           45.22699125194734       -4.47629975627220        0.72008747614696
H           44.03972395543941       -3.98823164773812        3.61785158470407
H           44.11169906820708       -6.21255210832236        4.66883631157594
H           43.42522518564201       -8.59230516196689        4.65868299965116
H           42.38792699032219       -9.23017582540489        3.38069012721816
H           41.58275667799472       -7.76900671880663        1.54988325763010
H           41.51630972939886       -5.54683308304353        0.49443128702497
H           40.03439102402540       -3.93422255346745        2.26590720843496
H           38.34017842409509       -2.12140747216626        1.53274699708321
Ni          92.50883077957302        0.01218561856197        0.01274631006065
C           95.85746243266202       -0.05781987056109        0.11644283383526
C           95.18873330435453       -1.07702065787707        0.70400569848568
C           95.84635487438263       -2.22186772931854        1.31480485573422
C           94.89696521816035       -3.00724153677886        1.82051477701129
C           93.60177166346369       -2.37601245508042        1.55495545297430
N           93.79052066863598       -1.16811201209488        0.84716977007010
C           92.39534748211615       -2.87188647269143        1.95527388364464
C           92.35527027983277       -4.13365760029358        2.73858541610616
C           91.80261775949076       -5.29202113350914        2.17730504519621
C           91.74049777712496       -6.47410866431523        2.91327317983138
C           92.22772814342778       -6.52244648067654        4.22946578211281
N           92.16351471629510       -7.72149262925583        4.97739206186469
C           92.77824103057758       -5.35869172780509        4.79043617398596
C           92.84116262361140       -4.17753466412743        4.05268433908961
C           91.12492385098894       -2.21563229172455        1.65634600038843
C           89.84610733212408       -2.60171104854954        2.25028467740829
C           88.90033960358411       -1.81477269726376        1.73079957476835
N           90.96881595283426       -1.21745992463329        0.80597338723064
C           89.56929877427632       -0.92172335304133        0.80294595877759
C           88.97431357456708       -0.00283984207179        0.01145276221133
C           89.74809426178324        0.86570570038710       -0.87140559349646
C           89.21695244308673        1.54165875093457       -1.92652070966213
C           90.24235326149278        2.36122523358651       -2.47893340728500
C           91.36912466921265        2.15984307042468       -1.74129170557187
N           91.12461950543477        1.20577250975301       -0.72102636524482
C           92.62564782015779        2.88692829913458       -1.95427443735249
C           92.60976924291350        4.16289633863049       -2.72081442587999
C           91.87684851943345        5.25955114810303       -2.24557220020506
C           91.83724095732042        6.45264126326186       -2.96526663289242
C           92.52718348312324        6.57678305808976       -4.18222979140743
N           92.48529276411521        7.78640876071698       -4.91393590085743
C           93.25745620481571        5.47648679860678       -4.66013401826788
C           93.29835986293010        4.28446805506222       -3.93786719909480
C           93.79986573914039        2.42296138074580       -1.46006582152547
C           95.09943368782510        3.06983375992326       -1.56541327884212
C           95.97614650679171        2.23907046090058       -0.99349597822892
C           95.23628322713651        1.07871420020402       -0.51811380807570
N           93.94941951166565        1.18353140948084       -0.78535565409863
H           96.94094607511781       -0.09672528614605        0.12430434981317
H           96.90914385744074       -2.42057040399200        1.35558065999079
H           95.08607127663328       -3.94236920618519        2.32973649275029
H           91.42030085607382       -5.27331348504322        1.16047712752786
H           91.30921512095118       -7.36064068982239        2.46179684264874
H           91.76068934010330       -8.57695818573610        4.57162453863583
H           92.51845252183162       -7.76257794453409        5.94230539429997
H           93.15703045754334       -5.37327480212147        5.80641264376869
H           93.26361296772060       -3.28507586125974        4.50609204365495
H           89.67004456475210       -3.37450959792097        2.98131792904594
H           87.84700061806107       -1.85865111027054        1.97066595360286
H           88.19275357858329        1.47927488495771       -2.25558765077355
H           90.14921548820080        3.03828547584972       -3.31421758106591
H           91.33648258488284        5.18390738862122       -1.30632890987722
H           91.26451184021407        7.28888091511532       -2.57959321040178
H           91.95098714794027        8.59529059999382       -4.56872255538254
H           92.98828087284599        7.88252996679596       -5.80650510155946
H           93.79344858841080        5.54922296983427       -5.60019642604850
H           93.85989911192262        3.44171069851806       -4.33120088708120
H           95.34181386908737        4.02721043792803       -2.00830258648398
H           97.03601430388458        2.41450462876303       -0.90242406755766
C           52.55108159772745       -0.00976500605949        0.03116978334357
C           51.32589284033541       -0.02228855224005        0.02232879011270
C           49.91473499418762       -0.01414888638750        0.01150405226645
C           48.68383129216326       -0.00841744932748        0.02184754002480
C           53.92170148258430       -0.01690677217647        0.03143841541896
C           55.12506109580618       -0.01118059198471        0.02512493976211