256
 energy: -443.229720054716 gnorm: 0.000760331480 xtb: 6.5.1 (b24c23e)
Co          43.75678955206477        0.02996726327615        0.05123201691295
C           40.39019833142753        0.11478618194091        0.16435860813109
C           41.04484806490780        1.05536019858943       -0.60274466648934
C           40.38592445227827        2.04595202050513       -1.39742935475259
C           41.34744910849272        2.89107408595483       -1.84041597899209
C           42.59035975274548        2.42665753158464       -1.29777385956837
N           42.40205725093264        1.25984420906159       -0.60248130869451
C           43.78477385122977        3.13630599835499       -1.35214518585377
C           43.80216467672254        4.48053377875188       -1.96673902656955
C           44.66645769569318        4.76537883623230       -3.02750895808879
C           44.68566570130601        6.01948975379035       -3.61042652678514
C           43.84753592523337        7.02915105003013       -3.12967850619310
N           43.83639351143985        8.27335563282178       -3.73428053484793
C           42.97895156339332        6.75239149313841       -2.07042653377641
C           42.95795444171982        5.49210523942086       -1.50078278931586
C           44.96248081413511        2.61501789987389       -0.83418240727844
C           46.20448407508540        3.32512740593531       -0.77918955464686
C           47.14936362241168        2.43278367413846       -0.39348266305991
N           45.13617560502800        1.31673229013194       -0.41236913286281
C           46.48057932675651        1.18495188694065       -0.20646649286647
C           47.14468076717925       -0.02769425920637        0.00105686800190
C           46.44720699512163       -1.22145423460396        0.20990588922906
C           47.07792372922246       -2.49500742931597        0.34842730191236
C           46.11130984635692       -3.36764609861044        0.72540888637905
C           44.89625683554303       -2.61781498241343        0.83345405989271
N           45.10429597576196       -1.31433201024322        0.44242212319567
C           43.72024442421375       -3.10680932682948        1.38498388012499
C           43.70236143817239       -4.46873196049279        1.95906692385025
C           44.60083690378261       -4.82880090718477        2.96731442836432
C           44.58402262926178       -6.09978544434641        3.51254515328792
C           43.67262093242384       -7.05104649194785        3.04618611370712
N           43.62686901010872       -8.31098549631755        3.61540517840596
C           42.76828884755085       -6.69842338172957        2.04069892008940
C           42.78462469864481       -5.42176471179219        1.50866849228500
C           42.55974278765657       -2.34094645876853        1.41804818135350
C           41.33417266881960       -2.75502906919244        2.03551671952098
C           40.39335916540751       -1.84347928284156        1.69068795024681
C           41.04751270181286       -0.86836733096072        0.87307319130829
N           42.38786262331266       -1.14662749647787        0.76774621316165
H           39.30768590115675        0.14479101064673        0.20552927427610
H           39.32320603653831        2.07663583806098       -1.57876333175289
H           41.23706884028478        3.75533459818973       -2.47518079187174
H           45.31327893979974        3.98458480225565       -3.41243273280114
H           45.35155479139610        6.22417475738074       -4.44161648937212
H           44.67470203591506        8.51038589510288       -4.24015195172126
H           43.47766530154568        9.02245208881806       -3.16418301119058
H           42.32506851836162        7.53158771365910       -1.69418229424191
H           42.29568456209267        5.29198098887278       -0.66561388935500
H           46.32694838722642        4.37192406919035       -1.00529669763797
H           48.20695207933703        2.58809529271053       -0.25249394473367
H           48.12641244282375       -2.68077843713340        0.17902450496422
H           46.20324079817064       -4.42462721158038        0.91570067063435
H           45.30368546716559       -4.09321097201693        3.34293521726265
H           45.27789140527206       -6.36283484317781        4.30346910193290
H           44.47564978651069       -8.60550065153385        4.07114366926594
H           43.20142327238109       -9.02327488485817        3.04402703803947
H           42.05671735863655       -7.43158490401769        1.67679496499417
H           42.09242968579679       -5.16247106705409        0.71504999709245
H           41.22085205284656       -3.63204631699532        2.65201800434536
H           39.34658964607535       -1.82142915158781        1.94947132079779
Co          91.61401406480589       -0.01236462013237        0.06108381921845
C           94.98196373685379        0.03106153445465        0.19383674499998
C           94.32592602225516       -1.12664820459416        0.55507688423569
C           94.98450878668943       -2.33550068762915        0.94488501333574
C           94.02253207393555       -3.17118496717763        1.40408502453872
C           92.77930376590457       -2.46331244936805        1.31259517368554
N           92.96827265542015       -1.23953074348626        0.72285053692784
C           91.58389752517138       -2.90300884400925        1.86897061884690
C           91.56672490603574       -4.15819472088271        2.65002547532876
C           90.71015218763205       -5.20400546266252        2.29550558043933
C           90.69189851051767       -6.38287868903072        3.01873685414730
C           91.52349134138669       -6.53592169594813        4.13134385226100
N           91.53611108569369       -7.72753572621528        4.83423377465742
C           92.38444763633460       -5.49583611672029        4.49171899836375
C           92.40432093579116       -4.32447099801066        3.75623062395421
C           90.40485872541517       -2.18660484156251        1.71482580726665
C           89.16055575853785       -2.53954186323469        2.32872820209971
C           88.21574536423211       -1.72723212739593        1.79482776908613
N           90.23244484817239       -1.11603332005340        0.86768545859756
C           88.88675326103164       -0.87561317862133        0.86540757206747
C           88.22500223870084       -0.02541405885311       -0.02437907306281
C           88.92343825809050        0.81777112551963       -0.89277304405930
C           88.29323963554373        1.64678924717097       -1.86987721636345
C           89.26049360609895        2.44600912850261       -2.38286073112012
C           90.47593365736353        2.11330505874967       -1.70298392335047
N           90.26743563899079        1.06057064537217       -0.84085665056151
C           91.65369178577869        2.84036123963492       -1.80566038035517
C           91.67337592566921        4.07458804693795       -2.61931985421002
C           90.78392595092107        5.11891304303396       -2.35226641077214
C           90.80286731489502        6.27793734958485       -3.10692929217635
C           91.70727807544654        6.41204702703173       -4.16376867056433
N           91.75522615268393        7.58468502246756       -4.89643849330307
C           92.60286898451307        5.37417795239875       -4.43523636091811
C           92.58445042441312        4.22296081971287       -3.66863160333981
C           92.81463539471665        2.43889674395103       -1.15451747345355
C           94.04211263208208        3.17917799174127       -1.16007782249540
C           94.98218423959928        2.38483639706401       -0.59442043936749
C           94.32589495024365        1.16556840588970       -0.23399810796353
N           92.98518509013087        1.23472002844204       -0.52166078297643
H           96.06447609419885        0.04759049782551        0.24160469668030
H           96.04749337655716       -2.50308209614979        0.87280960687614
H           94.13255562642762       -4.17701638458481        1.77591719673861
H           90.06852511741408       -5.09661612705107        1.42776872868503
H           90.03186748142151       -7.19202705445458        2.72575080160580
H           90.70079564908954       -8.28385939727620        4.74703395667856
H           91.88817945525270       -7.66435117111219        5.77598929542820
H           93.03336963862145       -5.60960615458723        5.35324991354801
H           93.06085648858809       -3.51462851232854        4.05506233859774
H           89.03666378563817       -3.30898931370492        3.07339350691935
H           87.15688650356461       -1.69996859296034        1.99624874884033
H           87.24438953421928        1.61214322110831       -2.11736139113908
H           89.16901467237825        3.19608288483245       -3.15153755814022
H           90.08628539118976        5.02742026580071       -1.52697456255599
H           90.11595377583393        7.08637674375092       -2.88157739656528
H           90.90950904808284        8.13191637041131       -4.88260501429058
H           92.17240914938930        7.50102241344955       -5.80959338718271
H           93.30926867973780        5.47390551103627       -5.25215354288095
H           93.26993142824402        3.41450413676652       -3.89823381747459
H           94.15691233046081        4.17795138216860       -1.54912936996874
H           96.02977697808821        2.58549912045206       -0.43477340930235
C           52.34242001331244       -0.07684351293863       -0.02891322243466
C           51.11295421221666       -0.07192354465994       -0.02199847286644
C           49.77046246083435       -0.06156403341585       -0.01665722350420
C           48.54572768818736       -0.04785123642398       -0.00922052834126
C           53.68477915322949       -0.07856844270257       -0.03232059288443
C           54.90986188966237       -0.07531078460679       -0.03186948645928
C           68.29555117953268       -0.06620946336954       -0.09642724099335
C           67.06569937751684       -0.07046081468168       -0.09234787712409
C           65.72380275058137       -0.07065253328422       -0.07960369635236
C           64.49859143980972       -0.06695988832532       -0.06380285583496
C           69.63752654327880       -0.06395846168928       -0.08863955622601
C           70.86271252928609       -0.05255633697028       -0.07780477852461
C           84.25446350241594       -0.01768193361268       -0.07958960007078
C           83.02551961658625       -0.02067688670029       -0.08135952401684
C           81.68184791077691       -0.01818470444403       -0.07446236206439
C           80.45740035229528       -0.01752783302945       -0.06248259007680
C           85.59827506901821       -0.02118753206573       -0.06771164718270
C           86.82239725129747       -0.02432599841585       -0.05146258405522
Co          59.70513770011777       -0.06575672340346       -0.01524715350711
C           56.31055811777451       -0.07224486570656       -0.02587288102224
C           56.99097858900349        0.99638387918711       -0.61859410507383
C           56.32967652961717        2.09730967889602       -1.24247801639189
C           57.28112814173014        3.03030585725727       -1.49030772787752
C           58.52234282572101        2.48879138562229       -1.02693386416651
N           58.33570020315191        1.21902721548232       -0.53155981985341
C           59.69847155506222        3.21991524762368       -0.91753594607533
C           59.69547318774045        4.64855016654278       -1.30840645368278
C           59.45386697373512        5.02439662855609       -2.63158515677039
C           59.45686302996805        6.35788169884215       -3.00044396306280
C           59.68719903850678        7.34994506652683       -2.04351886374319
N           59.73054610443834        8.68125520232283       -2.41579444015439
C           59.93267393635347        6.98047514235722       -0.71827250305623
C           59.93842885718178        5.64426336531033       -0.35967798066294
C           60.87950476399013        2.65071251839780       -0.46105111397558
C           62.12493216992308        3.35210292602318       -0.37917674736002
C           63.08317192858080        2.42286009800964       -0.14546691472544
N           61.07052760382471        1.30737905280945       -0.22907347381557
C           62.42044428269801        1.15938674549276       -0.08717945164986
C           63.09857282964573       -0.06304600229923       -0.03457145550508
C           62.41740430258689       -1.28122479100564        0.05766052708677
C           63.06970965427008       -2.55081346359368        0.08306107439663
C           62.11720466579297       -3.46931589207077        0.37966271243291
C           60.88969259527256       -2.75219529070082        0.54269432892509
N           61.07654700710244       -1.41565508082476        0.27896315888842
C           59.71077796901962       -3.31620840367739        1.01446013089679
C           59.71857760674567       -4.72426211074319        1.46206741552732
C           58.85111505823182       -5.66101649178965        0.89304502153067
C           58.86247755899510       -6.98082879784970        1.30595277273114
C           59.73486019122707       -7.39232145642235        2.31763762139844
N           59.77554941755733       -8.71792163013078        2.70647328746467
C           60.60731876126221       -6.46234568109867        2.89032361866966
C           60.59875375641079       -5.14748069041425        2.46224270485267
C           58.52583304542321       -2.59316885758028        1.06834230655225
C           57.29183109202791       -3.10628456698310        1.58027798053407
C           56.33307003259280       -2.19925024394860        1.26944638947026
C           56.98916273123993       -1.12983075872281        0.58835683583842
N           58.33625390723962       -1.34407456350344        0.52366095349575
H           55.27029300571011        2.14565180746481       -1.43667105327694
H           57.15737569186131        4.00832580301267       -1.92576327976383
H           59.28447849529483        4.25979569998555       -3.38174562454332
H           59.28013226087506        6.63788834661830       -4.03317182872282
H           59.24252509333894        8.90423573460628       -3.26836068359685
H           59.57490589459168        9.34041333110860       -1.67018270532317
H           60.11535013522442        7.74576316296617        0.02813059738393
H           60.11298712156741        5.36571535307539        0.67376875240253
H           62.24541568705177        4.41446637585922       -0.51426090085352
H           64.14688161966629        2.56238978266473       -0.03891831364191
H           64.12156456292040       -2.70329343644389       -0.09774785262246
H           62.22622550647870       -4.53717341631400        0.47681572288994
H           58.17939349427272       -5.35299646183809        0.09931121233269
H           58.19461355915598       -7.70137090917783        0.84666514275113
H           60.16716817569159       -8.88773032339691        3.61872360054736
H           58.94357468583682       -9.25041002607273        2.50988066152945
H           61.28804316838667       -6.77604321555895        3.67412783616998
H           61.26587495333590       -4.42811642378956        2.92440001511645
H           57.18182802266940       -4.04020411206013        2.10691380458433
H           55.27519445060107       -2.23831685246869        1.47370441857207
Co          75.65917940554786       -0.01878322122875       -0.00868557857531
C           72.26307251586861       -0.04236851801244       -0.05942684918166
C           72.94361431274253        1.03639894773861       -0.63286609422637
C           72.28015158367251        2.14347535487683       -1.24412218512665
C           73.22954256363404        3.08082330739437       -1.48076012111537
C           74.47228378761854        2.53566213793466       -1.02487112408505
N           74.28792514053528        1.25962061386048       -0.54320896564888
C           75.64854217303261        3.26517797840609       -0.91999836862771
C           75.64384245123003        4.69522151628998       -1.30663570971681
C           75.39383779921285        5.07527663634887       -2.62701195778005
C           75.39282903177929        6.41003681686992       -2.99137091741351
C           75.63971729355974        7.39834267349697       -2.03478067206724
N           75.59057360791118        8.73590645555965       -2.38494991886568
C           75.87840253622804        7.02546855016501       -0.70937088396558
C           75.88784300745728        5.68800742093537       -0.35524201200352
C           76.83314688363916        2.69397358483681       -0.47360459750154
C           78.07850507234753        3.39602249218578       -0.39995040362314
C           79.03814836231479        2.46787026542682       -0.16740849067575
N           77.02529143560407        1.35149979721797       -0.24167648611219
C           78.37625940968617        1.20449136577310       -0.10099242330354
C           79.05529479658816       -0.01585314637563       -0.03695989438010
C           78.37658306067929       -1.23323003481829        0.06756222670236
C           79.03250926887935       -2.50042842774152        0.11292379720312
C           78.08095654736762       -3.41815132809110        0.41447256790612
C           76.85003749669832       -2.70315769189678        0.55934819556847
N           77.03362046610046       -1.36968225832130        0.28075495370184
C           75.66841722636741       -3.26951674040087        1.02265570017646
C           75.67757483884864       -4.67505409231558        1.47953963136036
C           74.82522759257040       -5.62030018255362        0.90198367994415
C           74.83561144074962       -6.93702051660566        1.32484494690581
C           75.70027517983927       -7.33892558355755        2.34679024211260
N           75.67734690571591       -8.64252474970787        2.80731698088638
C           76.54655164858872       -6.39705148018312        2.93857782369868
C           76.53926179798279       -5.08523434356351        2.50070743787878
C           74.47984966718010       -2.55326949042539        1.05836095969318
C           73.24224807593616       -3.07258897670720        1.55583644866505
C           72.28214828815400       -2.17303038156628        1.22911272543239
C           72.94072251127335       -1.10087632401205        0.55436867634984
N           74.28920623724026       -1.30731437683585        0.50549489818444
H           71.22059955341889        2.19218865310225       -1.43717674308193
H           73.10406833592444        4.06400097768878       -1.90378014754888
H           75.21949069935202        4.31298931565772       -3.37840492771941
H           75.20413613345231        6.69359992180516       -4.02101168401710
H           75.74354745964764        8.92786691720006       -3.36203226334781
H           76.08325866341333        9.35830676981164       -1.76460371376709
H           76.05703642486553        7.78881212614476        0.04000099213728
H           76.06562099433827        5.40629961789330        0.67679418970270
H           78.19769069241818        4.45819157890213       -0.53810892129579
H           80.10222861513870        2.60804548998203       -0.06537138855791
H           80.08615567946265       -2.65152233058615       -0.05843902641846
H           78.19258037513515       -4.48429687411263        0.52683502318966
H           74.16536753574398       -5.32100761206372        0.09506876919762
H           74.17594802501695       -7.66316185772302        0.86253075370840
H           76.51062778194898       -8.94230196447038        3.28746290870848
H           75.31278512432101       -9.32047415485981        2.15755555233903
H           77.20917293949556       -6.69986694286322        3.74193460343108
H           77.19218375956252       -4.35841366555680        2.97139879380954
H           73.13148017002038       -4.00505777669190        2.08477789296929
H           71.22207840612371       -2.21760893899227        1.42043756433707
