256
 energy: -511.745994850396 gnorm: 0.851911738595 xtb: 6.5.1 (b24c23e)
Cu          43.47757699999999        0.04351400000000       -0.01713800000000
C           40.14083100000000       -0.08148400000000       -0.09483400000000
C           40.80402800000000       -1.23281700000000       -0.23755300000000
C           40.15332100000000       -2.53134800000000       -0.36358600000000
C           41.09381000000000       -3.44445600000000       -0.51801700000000
C           42.39922800000000       -2.76982300000000       -0.50918800000000
N           42.22222200000000       -1.36505700000000       -0.32183100000000
C           43.59169600000000       -3.37988200000000       -0.67180100000000
C           43.63908000000000       -4.84177600000000       -0.90105600000000
C           44.15438100000000       -5.69121500000000        0.08704400000000
C           44.21314100000000       -7.07029800000000       -0.13039900000000
C           43.76035399999999       -7.62245900000000       -1.34313900000000
N           43.81621800000000       -9.04264900000000       -1.56978000000000
O           43.37176800000000       -9.57993500000000       -2.75667700000000
O           44.25585400000000       -9.81088900000000       -0.68866700000000
C           43.25111099999999       -6.76391300000000       -2.33347400000000
C           43.19307500000000       -5.38471900000000       -2.11474200000000
C           44.88470900000000       -2.64669200000000       -0.64268900000000
C           46.17128999999999       -3.24578400000000       -1.01924800000000
C           47.10563300000000       -2.33126800000000       -0.85502700000000
N           45.02546000000000       -1.41274900000000       -0.26508100000000
C           46.42265100000000       -1.13737400000000       -0.37139500000000
C           47.01606899999999        0.01464900000000       -0.01904800000000
C           46.25277500000000        1.18958700000000        0.45864300000000
C           46.78520500000000        2.20246100000000        1.13064700000000
C           45.74161600000000        3.19147600000000        1.31877700000000
C           44.64113100000000        2.71901900000000        0.74462500000000
N           44.87403499999999        1.43010200000000        0.17372400000000
C           43.35919199999999        3.46418900000000        0.65057400000000
C           43.37668800000000        4.93188600000000        0.86242000000000
C           42.71454400000000        5.50038800000000        1.96067900000000
C           42.75163600000000        6.88174200000000        2.16917500000000
C           43.45599700000000        7.71834100000000        1.28573500000000
N           43.49076600000000        9.14083000000000        1.50240700000000
O           42.88566300000000        9.69454100000000        2.60788900000000
O           44.07448900000000        9.89399500000000        0.69519500000000
C           44.12655800000000        7.14186000000000        0.19094600000000
C           44.08960300000000        5.75997100000000       -0.01591700000000
C           42.19707100000000        2.83806900000000        0.38337800000000
C           40.88690800000000        3.47098500000000        0.24033300000000
C           40.02545500000000        2.49144100000000        0.04716400000000
C           40.77686600000000        1.23730700000000        0.05181000000000
N           42.04338099999999        1.42705900000000        0.24613600000000
H           39.05734900000000       -0.10966300000000       -0.08898700000000
H           39.08917800000000       -2.72922500000000       -0.33444300000000
H           40.90593900000000       -4.50444300000000       -0.62975000000000
H           44.50833700000000       -5.28441400000000        1.02654900000000
H           44.61370800000000       -7.70425800000000        0.64969400000000
H           42.89866500000000       -7.15759000000000       -3.27822000000000
H           42.80177700000000       -4.73882400000000       -2.89107900000000
H           46.34415499999999       -4.25386600000000       -1.37317500000000
H           48.16122599999999       -2.47053300000000       -1.04800400000000
H           47.81180700000000        2.29371300000000        1.45806800000000
H           45.85176999999999        4.14798300000000        1.81393200000000
H           42.17351300000000        4.87187700000000        2.65778600000000
H           42.22969500000000        7.29477700000000        3.02285000000000
H           44.68482700000000        7.75813200000000       -0.50136300000000
H           44.61648999999999        5.33418400000000       -0.86139000000000
H           40.64353800000000        4.52455000000000        0.28066800000000
H           38.95892799999999        2.60971300000000       -0.09302000000000
Cu          93.79902199999999       -0.01282600000000       -0.02810100000000
C           97.13576800000000        0.13218500000000       -0.05325900000000
C           96.47257200000000        1.25303200000000        0.24613700000000
C           97.12327900000000        2.50408200000000        0.61619500000000
C           96.18278900000000        3.40847500000000        0.81540900000000
C           94.87737199999999        2.77975300000000        0.57063400000000
N           95.05437800000000        1.40722500000000        0.21759300000000
C           93.68490299999999        3.40627600000000        0.64863200000000
C           93.63751900000000        4.84747300000000        0.98425400000000
C           93.12221899999999        5.26444100000000        2.21876800000000
C           93.06345899999999        6.62444000000000        2.53428800000000
C           93.51624600000000        7.59104500000000        1.61706600000000
N           93.46038099999998        8.99260100000000        1.93947300000000
O           93.90483200000000        9.93572400000000        1.04063000000000
O           93.02074499999999        9.37440900000000        3.04436000000000
C           94.02548899999998        7.16647100000000        0.37706400000000
C           94.08352499999998        5.80588600000000        0.06269700000000
C           92.39188999999999        2.71566200000000        0.40070500000000
C           91.10531000000000        3.41223900000000        0.27625300000000
C           90.17096699999999        2.50286900000000        0.08558700000000
N           92.25114000000001        1.43015900000000        0.28808400000000
C           90.85394900000000        1.21473800000000        0.08627300000000
C           90.26053100000000        0.01464900000000       -0.01904800000000
C           91.02382500000000       -1.25368200000000       -0.01676200000000
C           90.49139399999999       -2.44463200000000        0.22642800000000
C           91.53498399999999       -3.43203100000000        0.02999100000000
C           92.63546800000000       -2.77876000000000       -0.32511900000000
N           92.40256499999998       -1.36981600000000       -0.37107700000000
C           93.91740700000000       -3.43429900000000       -0.69171600000000
C           93.89991200000000       -4.87434800000000       -1.04565200000000
C           94.56205500000000       -5.81317500000000       -0.24068600000000
C           94.52496300000000       -7.17192400000000       -0.56535200000000
C           93.82060300000001       -7.61623300000000       -1.69802700000000
N           93.78583299999998       -9.01618200000000       -2.03053800000000
O           94.39093699999999       -9.94400500000000       -1.21332900000000
O           93.20211000000000       -9.41172600000000       -3.06126300000000
C           93.15004100000000       -6.67131000000000       -2.49678500000000
C           93.18699700000001       -5.31267700000000       -2.17040400000000
C           95.07952799999998       -2.75367100000000       -0.70464900000000
C           96.38969099999998       -3.28677500000000       -1.07457500000000
C           97.25114499999998       -2.30626700000000       -0.88636200000000
C           96.49973300000001       -1.14537400000000       -0.41180600000000
N           95.23321799999999       -1.39414700000000       -0.30280700000000
H           98.21925000000000        0.15611600000000       -0.03727300000000
H           98.18742200000000        2.67659400000000        0.71740700000000
H           96.37066000000000        4.43302300000000        1.10927900000000
H           92.76826300000000        4.53504500000000        2.93719400000000
H           92.66289200000000        6.91964500000000        3.49517600000000
H           94.37793400000000        7.88566700000000       -0.35114200000000
H           94.47482300000000        5.49821000000000       -0.89918300000000
H           90.93244500000000        4.47948100000000        0.32613800000000
H           89.11537399999999        2.70433200000000       -0.04109200000000
H           89.46479300000000       -2.65199600000000        0.49574500000000
H           91.42483000000000       -4.50441500000000        0.13037000000000
H           95.10308699999999       -5.49190500000000        0.64122700000000
H           95.04690500000000       -7.87491800000000        0.07116900000000
H           92.59177299999999       -6.98303200000000       -3.36966200000000
H           92.66010900000001       -4.60093700000000       -2.79454000000000
H           96.63306200000000       -4.27859700000000       -1.43222600000000
H           98.31767100000000       -2.36334700000000       -1.06066600000000
C           53.28658500000000        0.01575200000000       -0.01055800000000
C           52.07764500000000        0.00229600000000       -0.01900500000000
C           50.65611600000000        0.01111600000000       -0.03098800000000
C           49.44444700000000        0.01855500000000       -0.02012500000000
C           54.70318900000000        0.00907600000000       -0.01002500000000
C           55.92388500000000        0.01855500000000       -0.02012500000000
C           69.24214400000000        0.01575200000000       -0.01055800000000
C           68.03320400000000        0.00229600000000       -0.01900500000000
C           66.61167600000000        0.01111600000000       -0.03098800000000
C           65.40000600000000        0.01855500000000       -0.02012500000000
C           70.65874800000000        0.00907600000000       -0.01002500000000
C           71.87944400000001        0.01855500000000       -0.02012500000000
C           85.19770300000000        0.01575200000000       -0.01055800000000
C           83.98876299999999        0.00229600000000       -0.01900500000000
C           82.56723500000000        0.01111600000000       -0.03098800000000
C           81.35556500000000        0.01855500000000       -0.02012500000000
C           86.61430699999998        0.00907600000000       -0.01002500000000
C           87.83500300000000        0.01855500000000       -0.02012500000000
Cu          60.57344100000000        0.06184200000000       -0.04039500000000
C           57.20624600000000       -0.01772800000000        0.02244100000000
C           57.86236400000000       -1.18926400000000        0.11114400000000
C           57.22126900000000       -2.49225000000000        0.29913500000000
C           58.15846200000000       -3.41970100000000        0.29173000000000
C           59.45639499999999       -2.76486300000000        0.10030800000000
N           59.27859599999999       -1.35063100000000       -0.00885300000000
C           60.64121900000000       -3.40710600000000        0.03035300000000
C           60.67276900000000       -4.88467900000000        0.10428800000000
C           61.15125600000000       -5.52121700000000        1.25733500000000
C           61.19082399999999       -6.91669800000000        1.32683500000000
C           60.75594500000000       -7.69760200000000        0.23944500000000
N           60.79534500000000       -9.13499900000000        0.30651100000000
O           60.42077500000000       -9.89513300000000       -0.77766700000000
O           61.15084000000000       -9.71567200000000        1.35422200000000
C           60.28228699999999       -7.05157200000000       -0.91748800000000
C           60.24285999999999       -5.65620900000000       -0.98397800000000
C           61.94076999999999       -2.70362900000000       -0.11145000000000
C           63.21332000000000       -3.38614200000000       -0.37765500000000
C           64.16571100000000       -2.47566100000000       -0.38353400000000
N           62.10640099999999       -1.42594400000000        0.03696500000000
C           63.50747900000000       -1.20196600000000       -0.12243000000000
C           64.12236400000000       -0.01772800000000        0.02244100000000
C           63.37249300000000        1.23232400000000        0.26889400000000
C           63.90850000000000        2.34555200000000        0.75234000000000
C           62.87595699999999        3.36406600000000        0.73022700000000
C           61.78041200000000        2.80427000000000        0.23027800000000
N           62.00380500000000        1.43044400000000       -0.08352200000000
C           60.52320399999999        3.53458600000000       -0.06316500000000
C           60.58038500000000        5.00962000000000       -0.21344800000000
C           61.36306600000000        5.58300300000000       -1.22534400000000
C           61.43453100000000        6.97219700000000       -1.36145900000000
C           60.72759500000000        7.81290400000000       -0.48382400000000
N           60.79951700000000        9.24313700000000       -0.62951100000000
O           61.53392700000000        9.80615100000000       -1.64867600000000
O           60.19010500000000        9.99567800000000        0.15958600000000
C           59.95168199999999        7.23330100000000        0.53654000000000
C           59.88200000000000        5.84411300000000        0.67205100000000
C           59.35084800000000        2.88694700000000       -0.20782800000000
C           58.07249500000000        3.49575600000000       -0.56155700000000
C           57.18377300000000        2.52315000000000       -0.53495000000000
C           57.88350400000000        1.28558700000000       -0.17222800000000
N           59.15035400000000        1.49053900000000        0.01691800000000
H           56.16584699999999       -2.69353600000000        0.42524900000000
H           57.97280200000000       -4.47856400000000        0.41645700000000
H           61.49007600000000       -4.93632300000000        2.10330200000000
H           61.56490500000000       -7.38472000000000        2.22953300000000
H           59.94247700000000       -7.62451500000000       -1.77114700000000
H           59.87949600000000       -5.17566400000000       -1.88355000000000
H           63.36517100000000       -4.44540000000000       -0.53947500000000
H           65.21771099999999       -2.66754500000000       -0.54806100000000
H           64.93207900000000        2.48478400000000        1.07357600000000
H           62.99236900000000        4.39757200000000        1.02965300000000
H           61.91491799999999        4.95265400000000       -1.91188600000000
H           62.04382199999999        7.38821400000000       -2.15308800000000
H           59.39967100000000        7.85378400000000        1.23086200000000
H           59.28581800000000        5.41741800000000        1.46916800000000
H           57.86733000000000        4.52917300000000       -0.80938600000000
H           56.13157600000000        2.64080200000000       -0.75647700000000
Cu          76.52900000000000        0.06184200000000       -0.04039500000000
C           73.16180499999999       -0.01772800000000        0.02244100000000
C           73.81792299999999       -1.18926400000000        0.11114400000000
C           73.17682799999999       -2.49225000000000        0.29913500000000
C           74.11402099999998       -3.41970100000000        0.29173000000000
C           75.41195399999999       -2.76486300000000        0.10030800000000
N           75.23415500000000       -1.35063100000000       -0.00885300000000
C           76.59677799999999       -3.40710600000000        0.03035300000000
C           76.62832800000000       -4.88467900000000        0.10428800000000
C           77.10681500000000       -5.52121700000000        1.25733500000000
C           77.14638300000000       -6.91669800000000        1.32683500000000
C           76.71150400000001       -7.69760200000000        0.23944500000000
N           76.75090400000001       -9.13499900000000        0.30651100000000
O           76.37633399999999       -9.89513300000000       -0.77766700000000
O           77.10639900000000       -9.71567200000000        1.35422200000000
C           76.23784600000000       -7.05157200000000       -0.91748800000000
C           76.19841900000000       -5.65620900000000       -0.98397800000000
C           77.89632899999998       -2.70362900000000       -0.11145000000000
C           79.16887900000000       -3.38614200000000       -0.37765500000000
C           80.12127000000000       -2.47566100000000       -0.38353400000000
N           78.06196000000000       -1.42594400000000        0.03696500000000
C           79.46303800000000       -1.20196600000000       -0.12243000000000
C           80.07792300000000       -0.01772800000000        0.02244100000000
C           79.32805200000000        1.23232400000000        0.26889400000000
C           79.86405900000000        2.34555200000000        0.75234000000000
C           78.83151599999999        3.36406600000000        0.73022700000000
C           77.73597100000001        2.80427000000000        0.23027800000000
N           77.95936399999999        1.43044400000000       -0.08352200000000
C           76.47876300000000        3.53458600000000       -0.06316500000000
C           76.53594400000000        5.00962000000000       -0.21344800000000
C           77.31862500000000        5.58300300000000       -1.22534400000000
C           77.39008999999999        6.97219700000000       -1.36145900000000
C           76.68315400000000        7.81290400000000       -0.48382400000000
N           76.75507600000000        9.24313700000000       -0.62951100000000
O           77.48948599999999        9.80615100000000       -1.64867600000000
O           76.14566400000000        9.99567800000000        0.15958600000000
C           75.90724099999998        7.23330100000000        0.53654000000000
C           75.83755900000000        5.84411300000000        0.67205100000000
C           75.30640699999999        2.88694700000000       -0.20782800000000
C           74.02805400000000        3.49575600000000       -0.56155700000000
C           73.13933200000000        2.52315000000000       -0.53495000000000
C           73.83906300000000        1.28558700000000       -0.17222800000000
N           75.10591300000000        1.49053900000000        0.01691800000000
H           72.12140599999999       -2.69353600000000        0.42524900000000
H           73.92836100000000       -4.47856400000000        0.41645700000000
H           77.44563499999998       -4.93632300000000        2.10330200000000
H           77.52046400000000       -7.38472000000000        2.22953300000000
H           75.89803599999999       -7.62451500000000       -1.77114700000000
H           75.83505499999998       -5.17566400000000       -1.88355000000000
H           79.32073000000000       -4.44540000000000       -0.53947500000000
H           81.17326999999999       -2.66754500000000       -0.54806100000000
H           80.88763899999998        2.48478400000000        1.07357600000000
H           78.94792800000000        4.39757200000000        1.02965300000000
H           77.87047699999999        4.95265400000000       -1.91188600000000
H           77.99938100000000        7.38821400000000       -2.15308800000000
H           75.35523000000001        7.85378400000000        1.23086200000000
H           75.24137700000000        5.41741800000000        1.46916800000000
H           73.82288900000000        4.52917300000000       -0.80938600000000
H           72.08713500000000        2.64080200000000       -0.75647700000000
256
 energy: -512.075894921478 gnorm: 0.526084245721 xtb: 6.5.1 (b24c23e)
Cu          43.48593915259328        0.03891830868433       -0.01935839856262
C           40.14160594729567       -0.06523465838649       -0.09304639585932
C           40.80931280659624       -1.23412324816054       -0.23734303204824
C           40.15266119810097       -2.52512446579662       -0.36285571924584
C           41.10300545024918       -3.44655470505720       -0.51873381545320
C           42.39753057868491       -2.76400712063555       -0.50888217777605
N           42.20365496731531       -1.38317894878012       -0.32351872582021
C           43.60660699371189       -3.37612417893478       -0.67313198032493
C           43.64432830958773       -4.84297874811268       -0.90321612058024
C           44.15493434586975       -5.69785335970335        0.08148888083073
C           44.21168430368575       -7.07293112577604       -0.13447543448959
C           43.75885295348744       -7.62704414060317       -1.34828139195740
N           43.81127208420184       -9.05516875979881       -1.58090245749550
O           43.38780811028488       -9.54701812412427       -2.71141566146002
O           44.24705424308771       -9.79227020698825       -0.70681431023501
C           43.25090919739211       -6.76461220678667       -2.33279621631538
C           43.19331956810895       -5.39106065828454       -2.11164847605598
C           44.88014056472392       -2.66183638055804       -0.64386865372335
C           46.15935997911306       -3.25587417585863       -1.01956973667218
C           47.10564532794815       -2.32527464230957       -0.85338318581940
N           45.03928039147379       -1.40938993796674       -0.26693110873132
C           46.43654831268960       -1.13212230473226       -0.37113662436459
C           47.02386791455151        0.02802242786417       -0.01118033091304
C           46.25503746997939        1.17912136039664        0.44588413149813
C           46.78866598177000        2.22375366486808        1.13963829328172
C           45.76397547217866        3.19278783067371        1.32225840093368
C           44.63336260446129        2.70961019313391        0.73258032159784
N           44.88244584059805        1.43250845811538        0.17732424807955
C           43.37346820960393        3.45553826984007        0.64969371756594
C           43.38410065098084        4.92942390572736        0.86574836712471
C           42.71618572577267        5.50515174510435        1.95716983813882
C           42.75177569706477        6.88176607161003        2.16818994691297
C           43.45366953955078        7.72267999337727        1.29035847263607
N           43.48646373649366        9.15325900309003        1.51389623064659
O           42.90693043782090        9.66108763825142        2.56528230954433
O           44.06223844758335        9.87562231914838        0.71161248559773
C           44.12395144663098        7.14383323647859        0.19455990840264
C           44.08914688249327        5.76559286104239       -0.01053694418758
C           42.19610826624321        2.83692844648437        0.38283573899349
C           40.89402269241192        3.46988082532578        0.24176074049629
C           40.01603112600942        2.48034917656426        0.04519386160542
C           40.75772832677627        1.22911239280734        0.05097887621105
N           42.04268419706657        1.43765712322041        0.24534062729571
H           39.05813524075181       -0.10410662181694       -0.08934762698842
H           39.08957332521706       -2.72150232874884       -0.33344396677798
H           40.91568317770523       -4.50514190212110       -0.63043148468490
H           44.50739730511148       -5.28679077862464        1.02333962806852
H           44.61268183799825       -7.70740425560851        0.64730635402540
H           42.89934984730549       -7.16055747885091       -3.27777848782789
H           42.80302272894465       -4.74094676437159       -2.88878936089876
H           46.33605980800747       -4.25845382599149       -1.37324284170349
H           48.16039109008587       -2.46194972935221       -1.04515842845848
H           47.81313200538651        2.29936890032408        1.46168667355953
H           45.85723914475105        4.14737013473374        1.81607271545154
H           42.17526004040492        4.87375926323912        2.65565170523960
H           42.23058479583169        7.29737424973108        3.02234652545902
H           44.68325263634765        7.76095481468740       -0.49922984553860
H           44.61501349549015        5.33651041795889       -0.85863548210338
H           40.65265155828656        4.52338935158933        0.28161838508822
H           38.95497109029013        2.60300349542205       -0.09404791695460
Cu          93.79064000960436       -0.00768050413101       -0.02839314868520
C           97.13499544964816        0.11645381750505       -0.05769035542718
C           96.46728978552545        1.25415683844587        0.24681550296275
C           97.12393593182095        2.49803466759521        0.61453318166300
C           96.17359153235384        3.41068329901776        0.81553333567388
C           94.87906426047739        2.77424884449269        0.56873831753100
N           95.07292722965462        1.42463899289135        0.22284126094922
C           93.67000934191881        3.40331386413919        0.64598865268881
C           93.63227275507219        4.84941659664814        0.98269869581941
C           93.12167425924370        5.27267810819371        2.21610843401845
C           93.06491925966118        6.62841449292769        2.53149461958601
C           93.51774398581358        7.59721966714047        1.61401221489193
N           93.46530552227961        9.00840128800381        1.93384554239458
O           93.88880151170018        9.88821655251874        1.07029139298493
O           93.02956598974838        9.36394492035445        3.02054712205597
C           94.02568967619752        7.16687132898852        0.37795540606811
C           94.08327663414006        5.81060824457264        0.06793906136367
C           92.39650635240692        2.73020851963380        0.40530559335472
C           91.11725179001915        3.42171922053127        0.27975876475754
C           90.17100225518649        2.49668459232093        0.08483863016450
N           92.23751741811559        1.42781691208393        0.28514994431595
C           90.84027235263281        1.20983405281225        0.08453597039227
C           90.25362874767299       -0.00056920114816       -0.01666054299618
C           91.02176914339061       -1.23925870659835       -0.02462027584153
C           90.48794371942861       -2.46775391496356        0.22678941885368
C           91.51261373533433       -3.43455642503817        0.03273844575272
C           92.64325539370081       -2.76553030617695       -0.33273873124228
N           92.39421973656873       -1.37343237132384       -0.36877522183309
C           93.90313206156672       -3.42595097254915       -0.68929365476007
C           93.89250003387681       -4.87331785000206       -1.04164368959051
C           94.56041106522677       -5.81627537743975       -0.24572315381899
C           94.52482231507678       -7.17158010541552       -0.56627476723479
C           93.82292832799311       -7.62198655046096       -1.69536405402695
N           93.79012090416350       -9.03203277232975       -2.02453910914222
O           94.36967000769640       -9.89699694226606       -1.24031644381986
O           93.21438158024986       -9.40084064870611       -3.03914663163403
C           93.15264938655609       -6.67449708615984       -2.49417360671569
C           93.18745528956281       -5.31990552000595       -2.16752575765912
C           95.08048945731215       -2.75240697401596       -0.70472877426437
C           96.38257479444692       -3.28628863245875       -1.07282927633334
C           97.26056481021686       -2.29524076031401       -0.88403878331827
C           96.51886760278485       -1.13746688471044       -0.40950727604520
N           95.23390943240699       -1.40366122499236       -0.30751107175627
H           98.21846449327604        0.15110130308472       -0.03968925920972
H           98.18702443091229        2.66905905915073        0.71543649776597
H           96.36091458361989        4.43392322484805        1.10890671080695
H           92.76920267541927        4.53845128828035        2.93510932405925
H           92.66391483221631        6.92345731781990        3.49413971043792
H           94.37724715356258        7.88825544398616       -0.34962175543508
H           94.47357477844946        5.49932061225422       -0.89626556154527
H           90.94053191737588        4.48375725264927        0.32779715070987
H           89.11622475558823        2.69527652684443       -0.04166939849047
H           89.46347465593965       -2.65859417316349        0.49699852370126
H           91.41935358091661       -4.50465090804256        0.13258100738764
H           95.10133879153284       -5.49285037648040        0.63854299255351
H           95.04601433228598       -7.87713844573876        0.06972914393811
H           92.59334591159137       -6.98644928283189       -3.36874104679334
H           92.66158564361723       -4.60412662580792       -2.79285898279732
H           96.62394742039800       -4.27787683526848       -1.43090908658924
H           98.32162643809571       -2.35674088456869       -1.05910153687588
C           53.28419541472505        0.01546153858671       -0.01106153311885
C           52.05656076198402        0.00270990773420       -0.01945219218007
C           50.64482541291191        0.01115369251805       -0.03007090209422
C           49.41518538894389        0.01947719470467       -0.01997581757273
C           54.66699517328243        0.00920507698318       -0.00888509524557
C           55.88282431379381        0.02286532740296       -0.02021783462818