      -----------------------------------------------------------      
     |                   =====================                   |     
     |                           x T B                           |     
     |                   =====================                   |     
     |                         S. Grimme                         |     
     |          Mulliken Center for Theoretical Chemistry        |     
     |                    University of Bonn                     |     
      -----------------------------------------------------------      

   * xtb version 6.5.1 (b24c23e) compiled by 'conda@728c89f4b128' on 2022-07-12

   xtb is free software: you can redistribute it and/or modify it under
   the terms of the GNU Lesser General Public License as published by
   the Free Software Foundation, either version 3 of the License, or
   (at your option) any later version.
   
   xtb is distributed in the hope that it will be useful,
   but WITHOUT ANY WARRANTY; without even the implied warranty of
   MERCHANTABILITY or FITNESS FOR A PARTICULAR PURPOSE.  See the
   GNU Lesser General Public License for more details.
   
   Cite this work as:
   * C. Bannwarth, E. Caldeweyher, S. Ehlert, A. Hansen, P. Pracht,
     J. Seibert, S. Spicher, S. Grimme, WIREs Comput. Mol. Sci., 2020, 11,
     e01493. DOI: 10.1002/wcms.1493
   
   for GFN2-xTB:
   * C. Bannwarth, S. Ehlert and S. Grimme., J. Chem. Theory Comput., 2019,
     15, 1652-1671. DOI: 10.1021/acs.jctc.8b01176
   for GFN1-xTB:
   * S. Grimme, C. Bannwarth, P. Shushkov, J. Chem. Theory Comput., 2017,
     13, 1989-2009. DOI: 10.1021/acs.jctc.7b00118
   for GFN0-xTB:
   * P. Pracht, E. Caldeweyher, S. Ehlert, S. Grimme, ChemRxiv, 2019, preprint.
     DOI: 10.26434/chemrxiv.8326202.v1
   for GFN-FF:
   * S. Spicher and S. Grimme, Angew. Chem. Int. Ed., 2020, 59, 15665-15673.
     DOI: 10.1002/anie.202004239
   
   for ALPB and GBSA implicit solvation:
   * S. Ehlert, M. Stahn, S. Spicher, S. Grimme, J. Chem. Theory Comput.,
     2021, 17, 4250-4261. DOI: 10.1021/acs.jctc.1c00471
   
   for DFT-D4:
   * E. Caldeweyher, C. Bannwarth and S. Grimme, J. Chem. Phys., 2017,
     147, 034112. DOI: 10.1063/1.4993215
   * E. Caldeweyher, S. Ehlert, A. Hansen, H. Neugebauer, S. Spicher,
     C. Bannwarth and S. Grimme, J. Chem. Phys., 2019, 150, 154122.
     DOI: 10.1063/1.5090222
   * E. Caldeweyher, J.-M. Mewes, S. Ehlert and S. Grimme, Phys. Chem. Chem. Phys.
     2020, 22, 8499-8512. DOI: 10.1039/D0CP00502A
   
   for sTDA-xTB:
   * S. Grimme and C. Bannwarth, J. Chem. Phys., 2016, 145, 054103.
     DOI: 10.1063/1.4959605
   
   in the mass-spec context:
   * V. Asgeirsson, C. Bauer and S. Grimme, Chem. Sci., 2017, 8, 4879.
     DOI: 10.1039/c7sc00601b
   * J. Koopman and S. Grimme, ACS Omega 2019, 4, 12, 15120-15133.
     DOI: 10.1021/acsomega.9b02011
   
   for metadynamics refer to:
   * S. Grimme, J. Chem. Theory Comput., 2019, 155, 2847-2862
     DOI: 10.1021/acs.jctc.9b00143
   
   for SPH calculations refer to:
   * S. Spicher and S. Grimme, J. Chem. Theory Comput., 2021, 17, 1701-1714
     DOI: 10.1021/acs.jctc.0c01306
   
   with help from (in alphabetical order)
   P. Atkinson, C. Bannwarth, F. Bohle, G. Brandenburg, E. Caldeweyher
   M. Checinski, S. Dohm, S. Ehlert, S. Ehrlich, I. Gerasimov, C. Hölzer
   A. Katbashev, J. Koopman, C. Lavigne, S. Lehtola, F. März, M. Müller,
   F. Musil, H. Neugebauer, J. Pisarek, C. Plett, P. Pracht, F. Pultar,
   J. Seibert, P. Shushkov, S. Spicher, M. Stahn, M. Steiner, T. Strunk,
   J. Stückrath, T. Rose, and J. Unsleber
   
 * started run on 2022/07/27 at 21:35:37.154     

           -------------------------------------------------
          |                Calculation Setup                |
           -------------------------------------------------

          program call               : xtb xtbopt.xyz --gfn 1 --vipea
          hostname                   : cx3-2-25.cx3.hpc.ic.ac.uk
          coordinate file            : xtbopt.xyz
          omp threads                :                     1

   ID    Z sym.   atoms
    1    6 C      1-5, 7-10, 12-30, 33-40, 70-74, 76-79, 81-99, 102-109,
                  139-179, 181-184, 186-204, 207-214, 243-247, 249-252,
                  254-272, 275-282, 311-315, 317-320, 322-340, 343-350,
                  379-383, 385-388, 390-408, 411-418, 447-451, 453-456,
                  458-476, 479-486, 515-519, 521-524, 526-544, 547-554,
                  583-587, 589-592, 594-612, 615-622, 651-655, 657-660,
                  662-680, 683-690
    2    7 N      6, 11, 31, 32, 75, 80, 100, 101, 180, 185, 205, 206, 248,
                  253, 273, 274, 316, 321, 341, 342, 384, 389, 409, 410, 452,
                  457, 477, 478, 520, 525, 545, 546, 588, 593, 613, 614, 656,
                  661, 681, 682
    3    1 H      41-69, 110-138, 215-242, 283-310, 351-378, 419-446,
                  487-514, 555-582, 623-650, 691-718

           -------------------------------------------------
          |                 I P E A - x T B                 |
           -------------------------------------------------

        Reference                      10.1039/c7sc00601b
      * Hamiltonian:
        H0-scaling (s, p, d)           2.150000    2.300000    2.000000
        zeta-weighting                 0.000000
      * Dispersion:
        s8                             2.400000
        a1                             0.630000
        a2                             5.000000
        s9                             0.000000
      * Repulsion:
        kExp                           1.500000
        rExp                           1.000000
      * Coulomb:
        alpha                          1.000000
        third order                    atomic
        anisotropic                    false
      * Halogen bond correction:
        rad-scale                      1.300000
        damping                        0.440000


          ...................................................
          :                      SETUP                      :
          :.................................................:
          :  # basis functions                2744          :
          :  # atomic orbitals                2744          :
          :  # shells                         1872          :
          :  # electrons                      2066          :
          :  # halogen bonds                     0          :
          :  max. iterations                   250          :
          :  Hamiltonian                  GFN1-xTB          :
          :  restarted?                      false          :
          :  GBSA solvation                  false          :
          :  PC potential                    false          :
          :  electronic temp.          300.0000000     K    :
          :  accuracy                    1.0000000          :
          :  -> integral cutoff          0.2500000E+02      :
          :  -> integral neglect         0.1000000E-07      :
          :  -> SCF convergence          0.1000000E-05 Eh   :
          :  -> wf. convergence          0.2000000E-04 e    :
          :  Broyden damping             0.4000000          :
          ...................................................

 iter      E             dE          RMSdq      gap      omega  full diag
   1  -1285.9184217 -0.128592E+04  0.980E+00    0.46       0.0  T
   2  -1288.1877643 -0.226934E+01  0.617E+00    1.07       1.0  T
   3  -1266.6579254  0.215298E+02  0.455E+00    0.05       1.0  T
   4  -1290.7018884 -0.240440E+02  0.114E+00    0.92       1.0  T
   5  -1292.7779325 -0.207604E+01  0.294E-01    0.80       1.0  T
   6  -1292.9072405 -0.129308E+00  0.965E-02    0.83       1.0  T
   7  -1292.9176080 -0.103675E-01  0.394E-02    0.83       1.0  T
   8  -1292.9183319 -0.723894E-03  0.323E-02    0.83       1.0  T
   9  -1292.9189774 -0.645422E-03  0.213E-02    0.83       1.0  T
  10  -1292.9194390 -0.461615E-03  0.516E-03    0.83       1.0  T
  11  -1292.9194607 -0.217507E-04  0.219E-03    0.83       1.7  T
  12  -1292.9194674 -0.662701E-05  0.827E-04    0.83       4.5  T
  13  -1292.9194679 -0.578771E-06  0.489E-04    0.83       7.6  T
  14  -1292.9194682 -0.236896E-06  0.200E-04    0.83      18.7  T
  15  -1292.9194682 -0.455682E-07  0.820E-05    0.83      45.5  T

   *** convergence criteria satisfied after 15 iterations ***

         #    Occupation            Energy/Eh            Energy/eV
      -------------------------------------------------------------
         1        2.0000           -1.0413033             -28.3353
       ...           ...                  ...                  ...
      1027        2.0000           -0.3750903             -10.2067
      1028        2.0000           -0.3717273             -10.1152
      1029        2.0000           -0.3682363             -10.0202
      1030        2.0000           -0.3646385              -9.9223
      1031        2.0000           -0.3611256              -9.8267
      1032        2.0000           -0.3580904              -9.7441
      1033        2.0000           -0.3561618              -9.6917 (HOMO)
      1034        0.0000           -0.3255821              -8.8595 (LUMO)
      1035                         -0.3229560              -8.7881
      1036                         -0.3194587              -8.6929
      1037                         -0.3155049              -8.5853
      1038                         -0.3114478              -8.4749
       ...                                ...                  ...
      2744                        588.7962952           16021.9627
      -------------------------------------------------------------
                  HL-Gap            0.0305797 Eh            0.8321 eV
             Fermi-level           -0.3408408 Eh           -9.2747 eV

 SCC (total)                   0 d,  0 h,  2 min, 28.224 sec
 SCC setup                      ...        0 min,  0.078 sec (  0.053%)
 Dispersion                     ...        0 min,  0.070 sec (  0.048%)
 classical contributions        ...        0 min,  0.015 sec (  0.010%)
 integral evaluation            ...        0 min,  3.744 sec (  2.526%)
 iterations                     ...        2 min, 16.052 sec ( 91.788%)
 molecular gradient             ...        0 min,  6.734 sec (  4.543%)
 printout                       ...        0 min,  1.532 sec (  1.033%)

         :::::::::::::::::::::::::::::::::::::::::::::::::::::
         ::                     SUMMARY                     ::
         :::::::::::::::::::::::::::::::::::::::::::::::::::::
         :: total energy           -1266.067716419109 Eh    ::
         :: gradient norm              0.132188668731 Eh/a0 ::
         :: HOMO-LUMO gap              0.832115155913 eV    ::
         ::.................................................::
         :: SCC energy             -1292.919468211503 Eh    ::
         :: -> electrostatic           0.616506506459 Eh    ::
         :: repulsion energy          27.450483824523 Eh    ::
         :: dispersion energy         -0.598732032130 Eh    ::
         :: halogen bond corr.         0.000000000000 Eh    ::
         :: add. restraining           0.000000000000 Eh    ::
         :: total charge               0.000000000000 e     ::
         :::::::::::::::::::::::::::::::::::::::::::::::::::::

           ------------------------------------------------- 
          |        vertical delta SCC IP calculation        |
           ------------------------------------------------- 
   1  -1292.5474211 -0.129255E+04  0.324E-02    0.83       0.0  T
   2  -1292.5461284  0.129270E-02  0.352E-02    0.80       1.0  T
   3  -1292.5497005 -0.357207E-02  0.193E-02    0.83       1.0  T
   4  -1292.5506648 -0.964309E-03  0.128E-02    0.82       1.0  T
   5  -1292.5508726 -0.207830E-03  0.614E-03    0.83       1.0  T
   6  -1292.5504778  0.394824E-03  0.832E-03    0.82       1.0  T
   7  -1292.5505111 -0.333061E-04  0.754E-03    0.82       1.0  T
   8  -1292.5509107 -0.399654E-03  0.119E-03    0.83       3.1  T
   9  -1292.5509156 -0.488867E-05  0.543E-04    0.83       6.9  T
  10  -1292.5509160 -0.407032E-06  0.315E-04    0.83      11.9  T
  11  -1292.5509162 -0.136616E-06  0.125E-04    0.83      30.0  T
  12  -1292.5509162 -0.194125E-07  0.491E-05    0.83      76.0  T
     SCC iter.                  ...        1 min, 44.477 sec
     gradient                   ...        0 min,  6.781 sec
------------------------------------------------------------------------
empirical IP shift (eV):    4.8455
delta SCC IP (eV):    5.1833
------------------------------------------------------------------------
           ------------------------------------------------- 
          |        vertical delta SCC EA calculation        |
           ------------------------------------------------- 
   1  -1293.2205033 -0.129322E+04  0.564E-02    0.08       0.0  T
   2  -1293.2241688 -0.366547E-02  0.513E-02    0.01       1.0  T
   3  -1293.2293839 -0.521504E-02  0.311E-02    0.06       1.0  T
   4  -1293.2309122 -0.152833E-02  0.226E-02    0.03       1.0  T
   5  -1293.2315520 -0.639814E-03  0.125E-02    0.04       1.0  T
   6  -1293.2299477  0.160430E-02  0.157E-02    0.05       1.0  T
   7  -1293.2311013 -0.115360E-02  0.951E-03    0.05       1.0  T
   8  -1293.2317721 -0.670790E-03  0.226E-03    0.04       1.6  T
   9  -1293.2317872 -0.151113E-04  0.139E-03    0.04       2.7  T
  10  -1293.2317929 -0.573321E-05  0.463E-04    0.04       8.1  T
  11  -1293.2317933 -0.344114E-06  0.245E-04    0.04      15.2  T
  12  -1293.2317934 -0.798354E-07  0.877E-05    0.04      42.6  T
  13  -1293.2317934 -0.146115E-07  0.321E-05    0.04     116.4  T
     SCC iter.                  ...        1 min, 55.641 sec
     gradient                   ...        0 min,  7.080 sec
------------------------------------------------------------------------
empirical EA shift (eV):    4.8455
delta SCC EA (eV):    3.6533
------------------------------------------------------------------------
           -------------------------------------------------
          |                Property Printout                |
           -------------------------------------------------

    * Orbital Energies and Occupations

         #    Occupation            Energy/Eh            Energy/eV
      -------------------------------------------------------------
         1        2.0000           -1.0201286             -27.7591
       ...           ...                  ...                  ...
      1022        2.0000           -0.3611938              -9.8286
      1023        2.0000           -0.3611853              -9.8284
      1024        2.0000           -0.3573393              -9.7237
      1025        2.0000           -0.3565753              -9.7029
      1026        2.0000           -0.3540258              -9.6335
      1027        2.0000           -0.3508318              -9.5466
      1028        2.0000           -0.3473508              -9.4519
      1029        2.0000           -0.3435584              -9.3487
      1030        2.0000           -0.3395917              -9.2408
      1031        2.0000           -0.3356484              -9.1335
      1032        2.0000           -0.3319276              -9.0322
      1033        2.0000           -0.3290916              -8.9550
      1034        0.6768           -0.2984969              -8.1225 (HOMO)
      1035        0.3025           -0.2970009              -8.0818 (LUMO)
      1036        0.0202           -0.2941064              -8.0030
      1037        0.0004           -0.2904598              -7.9038
      1038        0.0000           -0.2868009              -7.8042
      1039        0.0000           -0.2835045              -7.7146
      1040                         -0.2821845              -7.6786
      1041                         -0.2816145              -7.6631
      1042                         -0.2793974              -7.6028
      1043                         -0.2778759              -7.5614
      1044                         -0.2773985              -7.5484
      1045                         -0.2761192              -7.5136
       ...                                ...                  ...
      2744                        588.8228394           16022.6850
      -------------------------------------------------------------
                  HL-Gap            0.0014960 Eh            0.0407 eV
             Fermi-level           -0.3058291 Eh           -8.3220 eV

  Mulliken/CM5 charges         n(s)   n(p)   n(d)
     1C    -0.02133 -0.06214   1.089  2.932  0.000
     2C     0.06237  0.12278   1.105  2.833  0.000
     3C    -0.03439 -0.07969   1.081  2.953  0.000
     4C    -0.03184 -0.07680   1.077  2.955  0.000
     5C     0.06350  0.12738   1.102  2.834  0.000
     6N    -0.15873 -0.51165   1.312  3.847  0.000
     7C     0.00964  0.01533   1.095  2.896  0.000
     8C     0.05985  0.12787   1.119  2.821  0.000
     9C    -0.03696 -0.08295   1.086  2.951  0.000
    10C    -0.03770 -0.08314   1.091  2.947  0.000
    11N    -0.28471 -0.47132   1.293  3.992  0.000
    12C     0.06453  0.13535   1.130  2.805  0.000
    13C     0.01780  0.02501   1.086  2.896  0.000
    14C     0.06669  0.13162   1.110  2.823  0.000
    15C    -0.03279 -0.07721   1.080  2.953  0.000
    16C    -0.03181 -0.07676   1.076  2.956  0.000
    17C     0.06261  0.12591   1.100  2.837  0.000
    18C     0.00915  0.01489   1.095  2.896  0.000
    19C     0.00420 -0.00434   1.089  2.907  0.000
    20C    -0.02572 -0.07714   1.064  2.962  0.000
    21C    -0.00042 -0.01817   1.097  2.904  0.000
    22C    -0.06125 -0.20599   1.074  2.988  0.000
    23C    -0.03058 -0.08237   1.065  2.966  0.000
    24C    -0.00048 -0.01822   1.096  2.904  0.000
    25C    -0.06134 -0.20608   1.074  2.988  0.000
    26C    -0.02636 -0.07770   1.062  2.965  0.000
    27C     0.06103  0.13035   1.122  2.817  0.000
    28C    -0.03731 -0.08328   1.088  2.950  0.000
    29C    -0.03967 -0.08603   1.092  2.948  0.000
    30C     0.05930  0.12504   1.125  2.816  0.000
    31N    -0.28691 -0.47389   1.293  3.994  0.000
    32N    -0.15670 -0.50891   1.314  3.843  0.000
    33C     0.00425 -0.00430   1.088  2.907  0.000
    34C    -0.02520 -0.07657   1.064  2.961  0.000
    35C    -0.00004 -0.01778   1.097  2.903  0.000
    36C    -0.06103 -0.20578   1.074  2.987  0.000
    37C    -0.03045 -0.08225   1.065  2.965  0.000
    38C    -0.00072 -0.01846   1.096  2.904  0.000
    39C    -0.06148 -0.20621   1.074  2.988  0.000
    40C    -0.02679 -0.07814   1.061  2.965  0.000
    41H     0.02933  0.08833   0.971  0.000  0.000
    42H     0.03965  0.09632   0.960  0.000  0.000
    43H     0.02901  0.08774   0.971  0.000  0.000
    44H     0.16405  0.37236   0.836  0.000  0.000
    45H     0.01982  0.07856   0.980  0.000  0.000
    46H     0.02477  0.08282   0.975  0.000  0.000
    47H     0.03464  0.09274   0.965  0.000  0.000
    48H     0.02930  0.08808   0.971  0.000  0.000
    49H     0.02439  0.08307   0.976  0.000  0.000
    50H     0.02683  0.07874   0.973  0.000  0.000
    51H     0.02216  0.07453   0.978  0.000  0.000
    52H     0.02210  0.07456   0.978  0.000  0.000
    53H     0.03179  0.08925   0.968  0.000  0.000
    54H     0.02347  0.07591   0.977  0.000  0.000
    55H     0.02244  0.07484   0.978  0.000  0.000
    56H     0.02611  0.07802   0.974  0.000  0.000
    57H     0.02554  0.08424   0.974  0.000  0.000
    58H     0.01938  0.07804   0.981  0.000  0.000
    59H     0.02947  0.08589   0.971  0.000  0.000
    60H     0.16270  0.37099   0.837  0.000  0.000
    61H     0.02526  0.08397   0.975  0.000  0.000
    62H     0.02331  0.07563   0.977  0.000  0.000
    63H     0.02087  0.07336   0.979  0.000  0.000
    64H     0.02839  0.08033   0.972  0.000  0.000
    65H     0.03178  0.08924   0.968  0.000  0.000
    66H     0.02245  0.07479   0.978  0.000  0.000
    67H     0.02662  0.07854   0.973  0.000  0.000
    68H     0.02193  0.07441   0.978  0.000  0.000
    69H     0.02480  0.08347   0.975  0.000  0.000
    70C    -0.02137 -0.06219   1.089  2.932  0.000
    71C     0.06234  0.12276   1.105  2.833  0.000
    72C    -0.03443 -0.07973   1.081  2.953  0.000
    73C    -0.03188 -0.07681   1.077  2.955  0.000
    74C     0.06346  0.12735   1.102  2.834  0.000
    75N    -0.15873 -0.51164   1.312  3.847  0.000
    76C     0.00970  0.01539   1.095  2.896  0.000
    77C     0.05980  0.12780   1.119  2.821  0.000
    78C    -0.03702 -0.08300   1.086  2.951  0.000
    79C    -0.03773 -0.08316   1.091  2.947  0.000
    80N    -0.28479 -0.47131   1.293  3.992  0.000
    81C     0.06454  0.13538   1.130  2.805  0.000
    82C     0.01774  0.02493   1.086  2.896  0.000
    83C     0.06668  0.13160   1.110  2.823  0.000
    84C    -0.03279 -0.07721   1.080  2.953  0.000
    85C    -0.03183 -0.07679   1.076  2.956  0.000
    86C     0.06261  0.12589   1.100  2.837  0.000
    87C     0.00914  0.01489   1.095  2.896  0.000
    88C     0.00424 -0.00430   1.089  2.907  0.000
    89C    -0.02567 -0.07707   1.064  2.962  0.000
    90C    -0.00037 -0.01812   1.097  2.904  0.000
    91C    -0.06124 -0.20598   1.074  2.987  0.000
    92C    -0.03058 -0.08236   1.065  2.966  0.000
    93C    -0.00050 -0.01824   1.096  2.904  0.000
    94C    -0.06136 -0.20610   1.074  2.988  0.000
    95C    -0.02643 -0.07778   1.062  2.965  0.000
    96C     0.06101  0.13033   1.122  2.817  0.000
    97C    -0.03735 -0.08332   1.088  2.950  0.000
    98C    -0.03971 -0.08607   1.092  2.948  0.000
    99C     0.05926  0.12499   1.125  2.816  0.000
   100N    -0.28695 -0.47394   1.293  3.994  0.000
   101N    -0.15677 -0.50893   1.314  3.843  0.000
   102C     0.00430 -0.00426   1.089  2.907  0.000
   103C    -0.02524 -0.07664   1.063  2.962  0.000
   104C    -0.00003 -0.01777   1.097  2.903  0.000
   105C    -0.06104 -0.20578   1.074  2.987  0.000
   106C    -0.03047 -0.08227   1.065  2.966  0.000
   107C    -0.00071 -0.01845   1.096  2.904  0.000
   108C    -0.06149 -0.20622   1.074  2.987  0.000
   109C    -0.02681 -0.07814   1.062  2.965  0.000
   110H     0.02926  0.08827   0.971  0.000  0.000
   111H     0.03960  0.09627   0.960  0.000  0.000
   112H     0.02897  0.08769   0.971  0.000  0.000
   113H     0.16405  0.37235   0.836  0.000  0.000
   114H     0.01989  0.07865   0.980  0.000  0.000
   115H     0.02469  0.08276   0.975  0.000  0.000
   116H     0.03458  0.09268   0.965  0.000  0.000
   117H     0.02936  0.08816   0.971  0.000  0.000
   118H     0.02449  0.08318   0.976  0.000  0.000
   119H     0.02676  0.07867   0.973  0.000  0.000
   120H     0.02228  0.07464   0.978  0.000  0.000
   121H     0.02214  0.07461   0.978  0.000  0.000
   122H     0.03184  0.08931   0.968  0.000  0.000
   123H     0.02318  0.07562   0.977  0.000  0.000
   124H     0.02250  0.07489   0.978  0.000  0.000
   125H     0.02599  0.07790   0.974  0.000  0.000
   126H     0.02530  0.08396   0.975  0.000  0.000
   127H     0.01931  0.07797   0.981  0.000  0.000
   128H     0.02941  0.08583   0.971  0.000  0.000
   129H     0.16269  0.37095   0.837  0.000  0.000
   130H     0.02527  0.08393   0.975  0.000  0.000
   131H     0.02314  0.07548   0.977  0.000  0.000
   132H     0.02091  0.07339   0.979  0.000  0.000
   133H     0.02838  0.08031   0.972  0.000  0.000
   134H     0.03181  0.08927   0.968  0.000  0.000
   135H     0.02227  0.07463   0.978  0.000  0.000
   136H     0.02673  0.07864   0.973  0.000  0.000
   137H     0.02199  0.07445   0.978  0.000  0.000
   138H     0.02478  0.08344   0.975  0.000  0.000
   139C    -0.01952 -0.02037   1.060  2.959  0.000
   140C    -0.01951 -0.02114   1.090  2.930  0.000
   141C    -0.02177 -0.02260   1.059  2.963  0.000
   142C    -0.01711 -0.01870   1.093  2.924  0.000
   143C    -0.02056 -0.02139   1.060  2.961  0.000
   144C    -0.01932 -0.02090   1.090  2.929  0.000
   145C    -0.02155 -0.02238   1.059  2.963  0.000
   146C    -0.01825 -0.01984   1.091  2.927  0.000
   147C    -0.02096 -0.02179   1.060  2.961  0.000
   148C    -0.01877 -0.02035   1.091  2.928  0.000
   149C    -0.02100 -0.02182   1.060  2.961  0.000
   150C    -0.01862 -0.02020   1.091  2.928  0.000
   151C    -0.02088 -0.02170   1.060  2.961  0.000
   152C    -0.01850 -0.02007   1.091  2.928  0.000
   153C    -0.02073 -0.02154   1.060  2.961  0.000
   154C    -0.01858 -0.02015   1.091  2.928  0.000
   155C    -0.02073 -0.02155   1.060  2.961  0.000
   156C    -0.01847 -0.02004   1.091  2.928  0.000
   157C    -0.02073 -0.02154   1.060  2.961  0.000
   158C    -0.01847 -0.02004   1.091  2.928  0.000
   159C    -0.02072 -0.02154   1.060  2.961  0.000
   160C    -0.01858 -0.02015   1.091  2.928  0.000
   161C    -0.02089 -0.02171   1.060  2.961  0.000
   162C    -0.01850 -0.02007   1.091  2.928  0.000
   163C    -0.02099 -0.02181   1.060  2.961  0.000
   164C    -0.01863 -0.02021   1.091  2.928  0.000
   165C    -0.02097 -0.02179   1.060  2.961  0.000
   166C    -0.01876 -0.02034   1.091  2.928  0.000
   167C    -0.02156 -0.02239   1.059  2.963  0.000
   168C    -0.01827 -0.01985   1.091  2.927  0.000
   169C    -0.02057 -0.02139   1.060  2.961  0.000
   170C    -0.01932 -0.02090   1.090  2.929  0.000
   171C    -0.02176 -0.02259   1.059  2.963  0.000
   172C    -0.01721 -0.01878   1.093  2.925  0.000
   173C    -0.01960 -0.02046   1.060  2.959  0.000
   174C    -0.01951 -0.02116   1.090  2.930  0.000
   175C     0.01502  0.02227   1.083  2.901  0.000
   176C     0.06604  0.13094   1.110  2.824  0.000
   177C    -0.03500 -0.07943   1.079  2.956  0.000
   178C    -0.03272 -0.07764   1.076  2.956  0.000
   179C     0.06110  0.12447   1.098  2.841  0.000
   180N    -0.15635 -0.50870   1.313  3.843  0.000
   181C     0.01191  0.01751   1.096  2.892  0.000
   182C     0.05861  0.12652   1.117  2.824  0.000
   183C    -0.03755 -0.08353   1.086  2.951  0.000
   184C    -0.03900 -0.08443   1.090  2.949  0.000
   185N    -0.28420 -0.47040   1.293  3.992  0.000
   186C     0.06420  0.13513   1.130  2.806  0.000
   187C     0.01683  0.02408   1.085  2.898  0.000
   188C     0.06636  0.13133   1.110  2.824  0.000
   189C    -0.03390 -0.07833   1.079  2.955  0.000
   190C    -0.03237 -0.07730   1.076  2.956  0.000
   191C     0.06143  0.12475   1.099  2.840  0.000
   192C     0.01183  0.01743   1.096  2.892  0.000
   193C     0.00492 -0.00371   1.089  2.906  0.000
   194C    -0.02502 -0.07647   1.063  2.962  0.000
   195C    -0.00012 -0.01787   1.097  2.904  0.000
   196C    -0.06107 -0.20581   1.074  2.987  0.000
   197C    -0.03045 -0.08224   1.065  2.966  0.000
   198C    -0.00038 -0.01813   1.096  2.904  0.000
   199C    -0.06121 -0.20595   1.074  2.987  0.000
   200C    -0.02601 -0.07736   1.061  2.965  0.000
   201C     0.05890  0.12690   1.118  2.823  0.000
   202C    -0.03730 -0.08329   1.087  2.951  0.000
   203C    -0.03914 -0.08459   1.090  2.949  0.000
   204C     0.06407  0.13486   1.130  2.806  0.000
   205N    -0.28494 -0.47106   1.292  3.993  0.000
   206N    -0.15578 -0.50818   1.314  3.842  0.000
   207C     0.00495 -0.00368   1.089  2.906  0.000
   208C    -0.02620 -0.07756   1.061  2.965  0.000
   209C    -0.00057 -0.01831   1.096  2.904  0.000
   210C    -0.06132 -0.20606   1.074  2.987  0.000
   211C    -0.03052 -0.08232   1.065  2.966  0.000
   212C    -0.00008 -0.01783   1.097  2.903  0.000
   213C    -0.06107 -0.20581   1.074  2.987  0.000
   214C    -0.02495 -0.07636   1.064  2.961  0.000
   215H     0.03247  0.09053   0.968  0.000  0.000
   216H     0.02787  0.08672   0.972  0.000  0.000
   217H     0.16279  0.37073   0.837  0.000  0.000
   218H     0.01844  0.07723   0.982  0.000  0.000
   219H     0.02325  0.08125   0.977  0.000  0.000
   220H     0.03412  0.09219   0.966  0.000  0.000
   221H     0.02849  0.08735   0.972  0.000  0.000
   222H     0.02474  0.08340   0.975  0.000  0.000
   223H     0.02575  0.07766   0.974  0.000  0.000
   224H     0.02240  0.07475   0.978  0.000  0.000
   225H     0.02253  0.07502   0.977  0.000  0.000
   226H     0.03144  0.08890   0.969  0.000  0.000
   227H     0.02271  0.07511   0.977  0.000  0.000
   228H     0.02729  0.07920   0.973  0.000  0.000
   229H     0.02129  0.07372   0.979  0.000  0.000
   230H     0.02560  0.08426   0.974  0.000  0.000
   231H     0.01853  0.07734   0.981  0.000  0.000
   232H     0.02281  0.08083   0.977  0.000  0.000
   233H     0.16265  0.37061   0.837  0.000  0.000
   234H     0.02526  0.08389   0.975  0.000  0.000
   235H     0.02145  0.07388   0.979  0.000  0.000
   236H     0.02251  0.07492   0.977  0.000  0.000
   237H     0.02655  0.07846   0.973  0.000  0.000
   238H     0.03139  0.08885   0.969  0.000  0.000
   239H     0.02327  0.07574   0.977  0.000  0.000
   240H     0.02228  0.07466   0.978  0.000  0.000
   241H     0.02575  0.07766   0.974  0.000  0.000
   242H     0.02507  0.08375   0.975  0.000  0.000
   243C     0.01567  0.02292   1.084  2.900  0.000
   244C     0.06621  0.13117   1.110  2.824  0.000
   245C    -0.03457 -0.07899   1.078  2.956  0.000
   246C    -0.03258 -0.07752   1.076  2.956  0.000
   247C     0.06104  0.12438   1.098  2.841  0.000
   248N    -0.15596 -0.50837   1.313  3.842  0.000
   249C     0.01209  0.01769   1.096  2.891  0.000
   250C     0.05850  0.12638   1.117  2.824  0.000
   251C    -0.03754 -0.08352   1.086  2.951  0.000
   252C    -0.03918 -0.08461   1.090  2.950  0.000
   253N    -0.28440 -0.47053   1.293  3.992  0.000
   254C     0.06416  0.13507   1.130  2.806  0.000
   255C     0.01623  0.02348   1.085  2.899  0.000
   256C     0.06631  0.13127   1.110  2.824  0.000
   257C    -0.03422 -0.07864   1.078  2.956  0.000
   258C    -0.03248 -0.07739   1.076  2.956  0.000
   259C     0.06113  0.12445   1.098  2.841  0.000
   260C     0.01205  0.01765   1.096  2.892  0.000
   261C     0.00499 -0.00364   1.089  2.906  0.000
   262C    -0.02498 -0.07642   1.064  2.961  0.000
   263C    -0.00015 -0.01791   1.097  2.904  0.000
   264C    -0.06106 -0.20580   1.074  2.987  0.000
   265C    -0.03050 -0.08229   1.065  2.966  0.000
   266C    -0.00042 -0.01817   1.096  2.904  0.000
   267C    -0.06121 -0.20595   1.074  2.987  0.000
   268C    -0.02597 -0.07731   1.061  2.965  0.000
   269C     0.05851  0.12643   1.117  2.824  0.000
   270C    -0.03759 -0.08357   1.086  2.951  0.000
   271C    -0.03943 -0.08486   1.090  2.950  0.000
   272C     0.06407  0.13497   1.130  2.806  0.000
   273N    -0.28452 -0.47069   1.292  3.992  0.000
   274N    -0.15591 -0.50829   1.314  3.842  0.000
   275C     0.00499 -0.00363   1.089  2.906  0.000
   276C    -0.02600 -0.07737   1.061  2.965  0.000
   277C    -0.00047 -0.01822   1.096  2.904  0.000
   278C    -0.06121 -0.20595   1.074  2.987  0.000
   279C    -0.03050 -0.08230   1.065  2.966  0.000
   280C    -0.00013 -0.01788   1.097  2.903  0.000
   281C    -0.06105 -0.20579   1.074  2.987  0.000
   282C    -0.02493 -0.07635   1.064  2.961  0.000
   283H     0.03330  0.09137   0.967  0.000  0.000
   284H     0.02800  0.08688   0.972  0.000  0.000
   285H     0.16265  0.37059   0.837  0.000  0.000
   286H     0.01827  0.07705   0.982  0.000  0.000
   287H     0.02295  0.08094   0.977  0.000  0.000
   288H     0.03376  0.09183   0.966  0.000  0.000
   289H     0.02822  0.08705   0.972  0.000  0.000
   290H     0.02476  0.08343   0.975  0.000  0.000
   291H     0.02573  0.07764   0.974  0.000  0.000
   292H     0.02223  0.07459   0.978  0.000  0.000
   293H     0.02266  0.07515   0.977  0.000  0.000
   294H     0.03127  0.08874   0.969  0.000  0.000
   295H     0.02273  0.07513   0.977  0.000  0.000
   296H     0.02716  0.07907   0.973  0.000  0.000
   297H     0.02115  0.07359   0.979  0.000  0.000
   298H     0.02563  0.08428   0.974  0.000  0.000
   299H     0.01814  0.07695   0.982  0.000  0.000
   300H     0.02255  0.08054   0.977  0.000  0.000
   301H     0.16262  0.37056   0.837  0.000  0.000
   302H     0.02548  0.08416   0.975  0.000  0.000
   303H     0.02121  0.07365   0.979  0.000  0.000
   304H     0.02267  0.07507   0.977  0.000  0.000
   305H     0.02690  0.07881   0.973  0.000  0.000
   306H     0.03125  0.08871   0.969  0.000  0.000
   307H     0.02304  0.07551   0.977  0.000  0.000
   308H     0.02216  0.07453   0.978  0.000  0.000
   309H     0.02570  0.07761   0.974  0.000  0.000
   310H     0.02492  0.08360   0.975  0.000  0.000
   311C     0.01629  0.02354   1.085  2.899  0.000
   312C     0.06629  0.13125   1.110  2.824  0.000
   313C    -0.03423 -0.07866   1.078  2.956  0.000
   314C    -0.03242 -0.07735   1.076  2.956  0.000
   315C     0.06126  0.12460   1.098  2.840  0.000
   316N    -0.15584 -0.50824   1.313  3.842  0.000
   317C     0.01211  0.01770   1.096  2.891  0.000
   318C     0.05864  0.12653   1.117  2.824  0.000
   319C    -0.03745 -0.08343   1.086  2.951  0.000
   320C    -0.03913 -0.08455   1.090  2.949  0.000
   321N    -0.28439 -0.47048   1.293  3.992  0.000
   322C     0.06418  0.13508   1.130  2.806  0.000
   323C     0.01625  0.02349   1.085  2.899  0.000
   324C     0.06635  0.13129   1.110  2.824  0.000
   325C    -0.03415 -0.07857   1.078  2.956  0.000
   326C    -0.03236 -0.07728   1.076  2.956  0.000
   327C     0.06125  0.12456   1.098  2.840  0.000
   328C     0.01213  0.01772   1.096  2.891  0.000
   329C     0.00497 -0.00366   1.089  2.906  0.000
   330C    -0.02495 -0.07639   1.064  2.961  0.000
   331C    -0.00011 -0.01786   1.097  2.904  0.000
   332C    -0.06104 -0.20578   1.074  2.987  0.000
   333C    -0.03046 -0.08225   1.065  2.966  0.000
   334C    -0.00042 -0.01816   1.096  2.904  0.000
   335C    -0.06121 -0.20595   1.074  2.987  0.000
   336C    -0.02598 -0.07733   1.061  2.965  0.000
   337C     0.05866  0.12657   1.117  2.824  0.000
   338C    -0.03749 -0.08348   1.086  2.951  0.000
   339C    -0.03921 -0.08464   1.090  2.950  0.000
   340C     0.06413  0.13503   1.130  2.806  0.000
   341N    -0.28430 -0.47044   1.292  3.992  0.000
   342N    -0.15591 -0.50826   1.313  3.842  0.000
   343C     0.00498 -0.00365   1.089  2.906  0.000
   344C    -0.02599 -0.07736   1.061  2.965  0.000
   345C    -0.00042 -0.01817   1.096  2.904  0.000
   346C    -0.06119 -0.20593   1.074  2.987  0.000
   347C    -0.03047 -0.08227   1.065  2.966  0.000
   348C    -0.00011 -0.01786   1.097  2.903  0.000
   349C    -0.06105 -0.20579   1.074  2.987  0.000
   350C    -0.02496 -0.07637   1.063  2.962  0.000
   351H     0.03368  0.09174   0.966  0.000  0.000
   352H     0.02823  0.08712   0.972  0.000  0.000
   353H     0.16269  0.37062   0.837  0.000  0.000
   354H     0.01834  0.07712   0.982  0.000  0.000
   355H     0.02297  0.08095   0.977  0.000  0.000
   356H     0.03381  0.09187   0.966  0.000  0.000
   357H     0.02830  0.08715   0.972  0.000  0.000
   358H     0.02482  0.08351   0.975  0.000  0.000
   359H     0.02574  0.07765   0.974  0.000  0.000
   360H     0.02230  0.07466   0.978  0.000  0.000
   361H     0.02279  0.07527   0.977  0.000  0.000
   362H     0.03132  0.08878   0.969  0.000  0.000
   363H     0.02277  0.07516   0.977  0.000  0.000
   364H     0.02711  0.07902   0.973  0.000  0.000
   365H     0.02120  0.07364   0.979  0.000  0.000
   366H     0.02564  0.08429   0.974  0.000  0.000
   367H     0.01831  0.07713   0.982  0.000  0.000
   368H     0.02285  0.08084   0.977  0.000  0.000
   369H     0.16268  0.37060   0.837  0.000  0.000
   370H     0.02556  0.08423   0.974  0.000  0.000
   371H     0.02124  0.07368   0.979  0.000  0.000
   372H     0.02270  0.07510   0.977  0.000  0.000
   373H     0.02706  0.07897   0.973  0.000  0.000
   374H     0.03131  0.08877   0.969  0.000  0.000
   375H     0.02297  0.07544   0.977  0.000  0.000
   376H     0.02217  0.07454   0.978  0.000  0.000
   377H     0.02577  0.07768   0.974  0.000  0.000
   378H     0.02493  0.08360   0.975  0.000  0.000
   379C     0.01651  0.02376   1.085  2.899  0.000
   380C     0.06636  0.13130   1.110  2.824  0.000
   381C    -0.03406 -0.07848   1.079  2.956  0.000
   382C    -0.03230 -0.07722   1.076  2.956  0.000
   383C     0.06138  0.12472   1.099  2.840  0.000
   384N    -0.15581 -0.50818   1.313  3.842  0.000
   385C     0.01216  0.01774   1.097  2.891  0.000
   386C     0.05877  0.12666   1.117  2.824  0.000
   387C    -0.03738 -0.08336   1.086  2.951  0.000
   388C    -0.03906 -0.08449   1.090  2.949  0.000
   389N    -0.28429 -0.47036   1.293  3.992  0.000
   390C     0.06421  0.13509   1.130  2.806  0.000
   391C     0.01643  0.02368   1.085  2.899  0.000
   392C     0.06638  0.13132   1.110  2.823  0.000
   393C    -0.03405 -0.07848   1.079  2.956  0.000
   394C    -0.03228 -0.07720   1.076  2.956  0.000
   395C     0.06137  0.12469   1.099  2.840  0.000
   396C     0.01217  0.01775   1.097  2.891  0.000
   397C     0.00495 -0.00368   1.089  2.906  0.000
   398C    -0.02495 -0.07639   1.063  2.961  0.000
   399C    -0.00008 -0.01784   1.097  2.903  0.000
   400C    -0.06105 -0.20579   1.074  2.987  0.000
   401C    -0.03043 -0.08222   1.065  2.966  0.000
   402C    -0.00039 -0.01814   1.096  2.904  0.000
   403C    -0.06121 -0.20595   1.074  2.987  0.000
   404C    -0.02599 -0.07734   1.061  2.965  0.000
   405C     0.05878  0.12668   1.117  2.824  0.000
   406C    -0.03740 -0.08338   1.086  2.951  0.000
   407C    -0.03908 -0.08451   1.090  2.949  0.000
   408C     0.06419  0.13507   1.130  2.806  0.000
   409N    -0.28424 -0.47034   1.293  3.992  0.000
   410N    -0.15585 -0.50820   1.313  3.842  0.000
   411C     0.00495 -0.00368   1.089  2.906  0.000
   412C    -0.02599 -0.07736   1.061  2.965  0.000
   413C    -0.00040 -0.01814   1.096  2.904  0.000
   414C    -0.06120 -0.20594   1.074  2.987  0.000
   415C    -0.03043 -0.08223   1.065  2.966  0.000
   416C    -0.00009 -0.01784   1.097  2.903  0.000
   417C    -0.06105 -0.20579   1.074  2.987  0.000
   418C    -0.02496 -0.07639   1.063  2.962  0.000
   419H     0.03389  0.09194   0.966  0.000  0.000
   420H     0.02838  0.08727   0.972  0.000  0.000
   421H     0.16273  0.37065   0.837  0.000  0.000
   422H     0.01844  0.07723   0.982  0.000  0.000
   423H     0.02305  0.08103   0.977  0.000  0.000
   424H     0.03390  0.09196   0.966  0.000  0.000
   425H     0.02840  0.08726   0.972  0.000  0.000
   426H     0.02489  0.08357   0.975  0.000  0.000
   427H     0.02578  0.07769   0.974  0.000  0.000
   428H     0.02235  0.07471   0.978  0.000  0.000
   429H     0.02285  0.07533   0.977  0.000  0.000
   430H     0.03138  0.08885   0.969  0.000  0.000
   431H     0.02278  0.07517   0.977  0.000  0.000
   432H     0.02712  0.07903   0.973  0.000  0.000
   433H     0.02126  0.07370   0.979  0.000  0.000
   434H     0.02565  0.08431   0.974  0.000  0.000
   435H     0.01844  0.07725   0.982  0.000  0.000
   436H     0.02303  0.08101   0.977  0.000  0.000
   437H     0.16273  0.37064   0.837  0.000  0.000
   438H     0.02562  0.08428   0.974  0.000  0.000
   439H     0.02127  0.07371   0.979  0.000  0.000
   440H     0.02276  0.07516   0.977  0.000  0.000
   441H     0.02713  0.07904   0.973  0.000  0.000
   442H     0.03137  0.08883   0.969  0.000  0.000
   443H     0.02297  0.07544   0.977  0.000  0.000
   444H     0.02221  0.07458   0.978  0.000  0.000
   445H     0.02582  0.07773   0.974  0.000  0.000
   446H     0.02493  0.08361   0.975  0.000  0.000
   447C     0.01644  0.02369   1.085  2.899  0.000
   448C     0.06638  0.13131   1.110  2.823  0.000
   449C    -0.03405 -0.07847   1.079  2.956  0.000
   450C    -0.03228 -0.07720   1.076  2.956  0.000
   451C     0.06137  0.12469   1.099  2.840  0.000
   452N    -0.15585 -0.50820   1.313  3.842  0.000
   453C     0.01217  0.01775   1.097  2.891  0.000
   454C     0.05878  0.12668   1.117  2.824  0.000
   455C    -0.03739 -0.08338   1.086  2.951  0.000
   456C    -0.03907 -0.08450   1.090  2.949  0.000
   457N    -0.28424 -0.47034   1.293  3.992  0.000
   458C     0.06419  0.13508   1.130  2.806  0.000
   459C     0.01651  0.02376   1.085  2.899  0.000
   460C     0.06636  0.13130   1.110  2.824  0.000
   461C    -0.03405 -0.07848   1.079  2.956  0.000
   462C    -0.03230 -0.07722   1.076  2.956  0.000
   463C     0.06139  0.12472   1.099  2.840  0.000
   464C     0.01216  0.01774   1.097  2.891  0.000
   465C     0.00495 -0.00368   1.089  2.906  0.000
   466C    -0.02496 -0.07638   1.063  2.962  0.000
   467C    -0.00009 -0.01784   1.097  2.903  0.000
   468C    -0.06105 -0.20579   1.074  2.987  0.000
   469C    -0.03043 -0.08223   1.065  2.966  0.000
   470C    -0.00039 -0.01814   1.096  2.904  0.000
   471C    -0.06120 -0.20594   1.074  2.987  0.000
   472C    -0.02599 -0.07735   1.061  2.965  0.000
   473C     0.05877  0.12666   1.117  2.824  0.000
   474C    -0.03738 -0.08336   1.086  2.951  0.000
   475C    -0.03906 -0.08449   1.090  2.949  0.000
   476C     0.06420  0.13509   1.130  2.806  0.000
   477N    -0.28429 -0.47036   1.293  3.992  0.000
   478N    -0.15581 -0.50818   1.313  3.842  0.000
   479C     0.00495 -0.00368   1.089  2.906  0.000
   480C    -0.02599 -0.07735   1.061  2.965  0.000
   481C    -0.00040 -0.01814   1.096  2.904  0.000
   482C    -0.06121 -0.20595   1.074  2.987  0.000
   483C    -0.03043 -0.08222   1.065  2.966  0.000
   484C    -0.00008 -0.01784   1.097  2.903  0.000
   485C    -0.06104 -0.20578   1.074  2.987  0.000
   486C    -0.02496 -0.07639   1.063  2.961  0.000
   487H     0.03390  0.09196   0.966  0.000  0.000
   488H     0.02840  0.08726   0.972  0.000  0.000
   489H     0.16273  0.37064   0.837  0.000  0.000
   490H     0.01843  0.07725   0.982  0.000  0.000
   491H     0.02303  0.08102   0.977  0.000  0.000
   492H     0.03388  0.09194   0.966  0.000  0.000
   493H     0.02838  0.08727   0.972  0.000  0.000
   494H     0.02492  0.08359   0.975  0.000  0.000
   495H     0.02578  0.07770   0.974  0.000  0.000
   496H     0.02234  0.07470   0.978  0.000  0.000
   497H     0.02286  0.07534   0.977  0.000  0.000
   498H     0.03139  0.08885   0.969  0.000  0.000
   499H     0.02275  0.07515   0.977  0.000  0.000
   500H     0.02713  0.07904   0.973  0.000  0.000
   501H     0.02128  0.07372   0.979  0.000  0.000
   502H     0.02562  0.08428   0.974  0.000  0.000
   503H     0.01844  0.07724   0.982  0.000  0.000
   504H     0.02305  0.08103   0.977  0.000  0.000
   505H     0.16273  0.37065   0.837  0.000  0.000
   506H     0.02565  0.08431   0.974  0.000  0.000
   507H     0.02125  0.07369   0.979  0.000  0.000
   508H     0.02279  0.07518   0.977  0.000  0.000
   509H     0.02712  0.07903   0.973  0.000  0.000
   510H     0.03137  0.08883   0.969  0.000  0.000
   511H     0.02296  0.07543   0.977  0.000  0.000
   512H     0.02221  0.07458   0.978  0.000  0.000
   513H     0.02582  0.07773   0.974  0.000  0.000
   514H     0.02490  0.08358   0.975  0.000  0.000
   515C     0.01625  0.02350   1.085  2.899  0.000
   516C     0.06635  0.13129   1.110  2.823  0.000
   517C    -0.03415 -0.07857   1.078  2.956  0.000
   518C    -0.03236 -0.07728   1.076  2.956  0.000
   519C     0.06125  0.12457   1.098  2.840  0.000
   520N    -0.15591 -0.50827   1.313  3.842  0.000
   521C     0.01213  0.01772   1.096  2.891  0.000
   522C     0.05866  0.12657   1.117  2.824  0.000
   523C    -0.03749 -0.08348   1.086  2.951  0.000
   524C    -0.03920 -0.08463   1.090  2.950  0.000
   525N    -0.28430 -0.47044   1.292  3.992  0.000
   526C     0.06413  0.13503   1.130  2.806  0.000
   527C     0.01630  0.02355   1.085  2.899  0.000
   528C     0.06629  0.13125   1.110  2.824  0.000
   529C    -0.03422 -0.07865   1.078  2.956  0.000
   530C    -0.03243 -0.07735   1.076  2.956  0.000
   531C     0.06126  0.12460   1.098  2.840  0.000
   532C     0.01211  0.01770   1.096  2.891  0.000
   533C     0.00497 -0.00366   1.089  2.906  0.000
   534C    -0.02495 -0.07637   1.063  2.961  0.000
   535C    -0.00011 -0.01786   1.097  2.903  0.000
   536C    -0.06106 -0.20580   1.074  2.987  0.000
   537C    -0.03047 -0.08227   1.065  2.966  0.000
   538C    -0.00042 -0.01817   1.096  2.904  0.000
   539C    -0.06119 -0.20593   1.074  2.987  0.000
   540C    -0.02599 -0.07736   1.061  2.965  0.000
   541C     0.05865  0.12653   1.117  2.824  0.000
   542C    -0.03745 -0.08343   1.086  2.951  0.000
   543C    -0.03913 -0.08455   1.090  2.949  0.000
   544C     0.06418  0.13507   1.130  2.806  0.000
   545N    -0.28439 -0.47048   1.293  3.992  0.000
   546N    -0.15583 -0.50823   1.313  3.842  0.000
   547C     0.00497 -0.00366   1.089  2.906  0.000
   548C    -0.02598 -0.07733   1.061  2.965  0.000
   549C    -0.00042 -0.01816   1.096  2.904  0.000
   550C    -0.06121 -0.20595   1.074  2.987  0.000
   551C    -0.03046 -0.08225   1.065  2.966  0.000
   552C    -0.00011 -0.01786   1.097  2.904  0.000
   553C    -0.06104 -0.20578   1.074  2.987  0.000
   554C    -0.02496 -0.07639   1.064  2.961  0.000
   555H     0.03381  0.09187   0.966  0.000  0.000
   556H     0.02830  0.08714   0.972  0.000  0.000
   557H     0.16268  0.37060   0.837  0.000  0.000
   558H     0.01830  0.07713   0.982  0.000  0.000
   559H     0.02285  0.08084   0.977  0.000  0.000
   560H     0.03368  0.09175   0.966  0.000  0.000
   561H     0.02823  0.08712   0.972  0.000  0.000
   562H     0.02492  0.08359   0.975  0.000  0.000
   563H     0.02573  0.07765   0.974  0.000  0.000
   564H     0.02230  0.07466   0.978  0.000  0.000
   565H     0.02286  0.07535   0.977  0.000  0.000
   566H     0.03132  0.08878   0.969  0.000  0.000
   567H     0.02269  0.07510   0.977  0.000  0.000
   568H     0.02706  0.07897   0.973  0.000  0.000
   569H     0.02125  0.07369   0.979  0.000  0.000
   570H     0.02556  0.08423   0.974  0.000  0.000
   571H     0.01835  0.07713   0.982  0.000  0.000
   572H     0.02297  0.08095   0.977  0.000  0.000
   573H     0.16269  0.37062   0.837  0.000  0.000
   574H     0.02564  0.08429   0.974  0.000  0.000
   575H     0.02119  0.07363   0.979  0.000  0.000
   576H     0.02278  0.07517   0.977  0.000  0.000
   577H     0.02711  0.07902   0.973  0.000  0.000
   578H     0.03130  0.08876   0.969  0.000  0.000
   579H     0.02291  0.07538   0.977  0.000  0.000
   580H     0.02216  0.07453   0.978  0.000  0.000
   581H     0.02578  0.07769   0.974  0.000  0.000
   582H     0.02484  0.08352   0.975  0.000  0.000
   583C     0.01623  0.02347   1.085  2.899  0.000
   584C     0.06630  0.13126   1.110  2.824  0.000
   585C    -0.03423 -0.07865   1.078  2.956  0.000
   586C    -0.03248 -0.07740   1.076  2.956  0.000
   587C     0.06112  0.12444   1.098  2.841  0.000
   588N    -0.15591 -0.50829   1.314  3.842  0.000
   589C     0.01205  0.01765   1.096  2.892  0.000
   590C     0.05850  0.12641   1.117  2.824  0.000
   591C    -0.03759 -0.08358   1.086  2.951  0.000
   592C    -0.03944 -0.08487   1.090  2.950  0.000
   593N    -0.28452 -0.47069   1.292  3.992  0.000
   594C     0.06406  0.13496   1.130  2.806  0.000
   595C     0.01567  0.02292   1.084  2.900  0.000
   596C     0.06621  0.13117   1.110  2.824  0.000
   597C    -0.03457 -0.07899   1.078  2.956  0.000
   598C    -0.03259 -0.07752   1.076  2.956  0.000
   599C     0.06103  0.12438   1.098  2.841  0.000
   600C     0.01209  0.01769   1.096  2.891  0.000
   601C     0.00500 -0.00363   1.089  2.906  0.000
   602C    -0.02493 -0.07635   1.064  2.961  0.000
   603C    -0.00013 -0.01788   1.097  2.903  0.000
   604C    -0.06105 -0.20579   1.074  2.987  0.000
   605C    -0.03051 -0.08230   1.065  2.966  0.000
   606C    -0.00047 -0.01821   1.096  2.904  0.000
   607C    -0.06121 -0.20595   1.074  2.987  0.000
   608C    -0.02600 -0.07736   1.061  2.965  0.000
   609C     0.05850  0.12638   1.117  2.824  0.000
   610C    -0.03754 -0.08353   1.086  2.951  0.000
   611C    -0.03918 -0.08461   1.090  2.950  0.000
   612C     0.06416  0.13507   1.130  2.806  0.000
   613N    -0.28440 -0.47053   1.293  3.992  0.000
   614N    -0.15596 -0.50837   1.313  3.842  0.000
   615C     0.00498 -0.00364   1.089  2.906  0.000
   616C    -0.02597 -0.07732   1.061  2.965  0.000
   617C    -0.00043 -0.01818   1.096  2.904  0.000
   618C    -0.06121 -0.20595   1.074  2.987  0.000
   619C    -0.03050 -0.08229   1.065  2.966  0.000
   620C    -0.00015 -0.01791   1.097  2.904  0.000
   621C    -0.06105 -0.20579   1.074  2.987  0.000
   622C    -0.02498 -0.07641   1.064  2.961  0.000
   623H     0.03376  0.09182   0.966  0.000  0.000
   624H     0.02821  0.08705   0.972  0.000  0.000
   625H     0.16262  0.37056   0.837  0.000  0.000
   626H     0.01812  0.07693   0.982  0.000  0.000
   627H     0.02254  0.08054   0.977  0.000  0.000
   628H     0.03331  0.09138   0.967  0.000  0.000
   629H     0.02800  0.08688   0.972  0.000  0.000
   630H     0.02491  0.08358   0.975  0.000  0.000
   631H     0.02565  0.07756   0.974  0.000  0.000
   632H     0.02229  0.07465   0.978  0.000  0.000
   633H     0.02292  0.07540   0.977  0.000  0.000
   634H     0.03126  0.08872   0.969  0.000  0.000
   635H     0.02267  0.07507   0.977  0.000  0.000
   636H     0.02691  0.07882   0.973  0.000  0.000
   637H     0.02122  0.07365   0.979  0.000  0.000
   638H     0.02549  0.08416   0.975  0.000  0.000
   639H     0.01827  0.07705   0.982  0.000  0.000
   640H     0.02294  0.08094   0.977  0.000  0.000
   641H     0.16264  0.37059   0.837  0.000  0.000
   642H     0.02562  0.08428   0.974  0.000  0.000
   643H     0.02114  0.07358   0.979  0.000  0.000
   644H     0.02274  0.07514   0.977  0.000  0.000
   645H     0.02716  0.07907   0.973  0.000  0.000
   646H     0.03125  0.08871   0.969  0.000  0.000
   647H     0.02279  0.07527   0.977  0.000  0.000
   648H     0.02209  0.07446   0.978  0.000  0.000
   649H     0.02577  0.07768   0.974  0.000  0.000
   650H     0.02477  0.08345   0.975  0.000  0.000
   651C     0.01682  0.02407   1.085  2.898  0.000
   652C     0.06635  0.13133   1.110  2.824  0.000
   653C    -0.03392 -0.07835   1.079  2.955  0.000
   654C    -0.03237 -0.07731   1.076  2.956  0.000
   655C     0.06141  0.12474   1.099  2.840  0.000
   656N    -0.15579 -0.50822   1.314  3.842  0.000
   657C     0.01177  0.01738   1.096  2.892  0.000
   658C     0.05890  0.12691   1.118  2.824  0.000
   659C    -0.03726 -0.08326   1.087  2.951  0.000
   660C    -0.03913 -0.08457   1.090  2.949  0.000
   661N    -0.28485 -0.47106   1.292  3.993  0.000
   662C     0.06408  0.13486   1.130  2.806  0.000
   663C     0.01505  0.02231   1.084  2.901  0.000
   664C     0.06601  0.13093   1.110  2.824  0.000
   665C    -0.03506 -0.07948   1.078  2.957  0.000
   666C    -0.03273 -0.07765   1.076  2.956  0.000
   667C     0.06105  0.12442   1.098  2.841  0.000
   668C     0.01189  0.01750   1.096  2.892  0.000
   669C     0.00490 -0.00371   1.089  2.906  0.000
   670C    -0.02494 -0.07637   1.064  2.961  0.000
   671C    -0.00011 -0.01787   1.097  2.903  0.000
   672C    -0.06106 -0.20580   1.074  2.988  0.000
   673C    -0.03052 -0.08231   1.065  2.966  0.000
   674C    -0.00057 -0.01831   1.096  2.904  0.000
   675C    -0.06130 -0.20604   1.074  2.987  0.000
   676C    -0.02611 -0.07745   1.061  2.965  0.000
   677C     0.05860  0.12650   1.117  2.824  0.000
   678C    -0.03752 -0.08351   1.086  2.951  0.000
   679C    -0.03899 -0.08442   1.090  2.949  0.000
   680C     0.06422  0.13515   1.130  2.806  0.000
   681N    -0.28418 -0.47038   1.293  3.992  0.000
   682N    -0.15628 -0.50869   1.313  3.843  0.000
   683C     0.00488 -0.00373   1.089  2.906  0.000
   684C    -0.02597 -0.07734   1.061  2.965  0.000
   685C    -0.00040 -0.01814   1.096  2.904  0.000
   686C    -0.06119 -0.20594   1.074  2.987  0.000
   687C    -0.03043 -0.08222   1.065  2.966  0.000
   688C    -0.00014 -0.01789   1.097  2.903  0.000
   689C    -0.06106 -0.20580   1.074  2.987  0.000
   690C    -0.02498 -0.07640   1.064  2.961  0.000
   691H     0.03411  0.09218   0.966  0.000  0.000
   692H     0.02846  0.08733   0.972  0.000  0.000
   693H     0.16263  0.37062   0.837  0.000  0.000
   694H     0.01842  0.07720   0.982  0.000  0.000
   695H     0.02289  0.08090   0.977  0.000  0.000
   696H     0.03250  0.09054   0.968  0.000  0.000
   697H     0.02773  0.08656   0.972  0.000  0.000
   698H     0.02491  0.08359   0.975  0.000  0.000
   699H     0.02554  0.07745   0.974  0.000  0.000
   700H     0.02261  0.07496   0.977  0.000  0.000
   701H     0.02305  0.07554   0.977  0.000  0.000
   702H     0.03135  0.08881   0.969  0.000  0.000
   703H     0.02278  0.07517   0.977  0.000  0.000
   704H     0.02662  0.07853   0.973  0.000  0.000
   705H     0.02134  0.07378   0.979  0.000  0.000
   706H     0.02547  0.08415   0.975  0.000  0.000
   707H     0.01848  0.07728   0.982  0.000  0.000
   708H     0.02327  0.08126   0.977  0.000  0.000
   709H     0.16276  0.37076   0.837  0.000  0.000
   710H     0.02565  0.08433   0.974  0.000  0.000
   711H     0.02119  0.07363   0.979  0.000  0.000
   712H     0.02278  0.07517   0.977  0.000  0.000
   713H     0.02735  0.07926   0.973  0.000  0.000
   714H     0.03135  0.08881   0.969  0.000  0.000
   715H     0.02280  0.07527   0.977  0.000  0.000
   716H     0.02216  0.07453   0.978  0.000  0.000
   717H     0.02584  0.07775   0.974  0.000  0.000
   718H     0.02473  0.08343   0.975  0.000  0.000

Wiberg/Mayer (AO) data.
largest (>0.10) Wiberg bond orders for each atom

 ---------------------------------------------------------------------------
     #   Z sym  total        # sym  WBO       # sym  WBO       # sym  WBO
 ---------------------------------------------------------------------------
     1   6 C    3.818 --    30 C    1.385     2 C    1.375    41 H    0.996
     2   6 C    3.925 --     1 C    1.375     3 C    1.239     6 N    1.230
     3   6 C    3.841 --     4 C    1.601     2 C    1.239    42 H    0.992
     4   6 C    3.825 --     3 C    1.601     5 C    1.251    43 H    0.999
     5   6 C    3.900 --     7 C    1.344     4 C    1.251     6 N    1.230
     6   7 N    3.247 --     5 C    1.230     2 C    1.230    44 H    0.961
     7   6 C    3.844 --     8 C    1.369     5 C    1.344    33 C    1.050
     8   6 C    3.926 --     7 C    1.369    11 N    1.356     9 C    1.161
     9   6 C    3.840 --    10 C    1.694     8 C    1.161    45 H    0.999
    10   6 C    3.852 --     9 C    1.694    12 C    1.165    46 H    0.999
    11   7 N    2.567 --    12 C    1.412     8 C    1.356
    12   6 C    3.945 --    11 N    1.412    13 C    1.291    10 C    1.165
    13   6 C    3.852 --    14 C    1.292    12 C    1.291   140 C    1.214
    14   6 C    3.906 --    13 C    1.292    15 C    1.264    32 N    1.250
    15   6 C    3.836 --    16 C    1.588    14 C    1.264    47 H    0.998
    16   6 C    3.819 --    15 C    1.588    17 C    1.257    48 H    0.998
    17   6 C    3.896 --    18 C    1.348    16 C    1.257    32 N    1.222
    18   6 C    3.832 --    27 C    1.357    17 C    1.348    19 C    1.051
    19   6 C    3.904 --    26 C    1.425    20 C    1.424    18 C    1.051
    20   6 C    3.823 --    21 C    1.437    19 C    1.424    49 H    0.995
    21   6 C    3.924 --    20 C    1.437    23 C    1.430    22 C    1.010
    22   6 C    3.917 --    21 C    1.010    52 H    0.997    51 H    0.997
                            50 H    0.986
    23   6 C    3.835 --    24 C    1.432    21 C    1.430    53 H    0.994
    24   6 C    3.923 --    26 C    1.435    23 C    1.432    25 C    1.010
    25   6 C    3.917 --    24 C    1.010    55 H    0.997    54 H    0.996
                            56 H    0.987
    26   6 C    3.819 --    24 C    1.435    19 C    1.425    57 H    0.995
    27   6 C    3.945 --    31 N    1.381    18 C    1.357    28 C    1.154
    28   6 C    3.844 --    29 C    1.707    27 C    1.154    58 H    1.000
    29   6 C    3.864 --    28 C    1.707    30 C    1.147    59 H    0.993
    30   6 C    3.968 --     1 C    1.385    31 N    1.375    29 C    1.147
    31   7 N    2.555 --    27 C    1.381    30 C    1.375
    32   7 N    3.258 --    14 C    1.250    17 C    1.222    60 H    0.960
    33   6 C    3.904 --    34 C    1.429    40 C    1.421     7 C    1.050
    34   6 C    3.824 --    35 C    1.431    33 C    1.429    61 H    0.995
    35   6 C    3.924 --    37 C    1.435    34 C    1.431    36 C    1.010
    36   6 C    3.917 --    35 C    1.010    63 H    0.999    62 H    0.995
                            64 H    0.986
    37   6 C    3.836 --    35 C    1.435    38 C    1.427    65 H    0.994
    38   6 C    3.923 --    40 C    1.439    37 C    1.427    39 C    1.010
    39   6 C    3.918 --    38 C    1.010    68 H    0.997    66 H    0.996
                            67 H    0.987
    40   6 C    3.819 --    38 C    1.439    33 C    1.421    69 H    0.995
    41   1 H    1.032 --     1 C    0.996
    42   1 H    1.015 --     3 C    0.992
    43   1 H    1.034 --     4 C    0.999
    44   1 H    1.082 --     6 N    0.961
    45   1 H    1.037 --     9 C    0.999
    46   1 H    1.030 --    10 C    0.999
    47   1 H    1.026 --    15 C    0.998
    48   1 H    1.034 --    16 C    0.998
    49   1 H    1.042 --    20 C    0.995
    50   1 H    1.033 --    22 C    0.986
    51   1 H    1.035 --    22 C    0.997
    52   1 H    1.034 --    22 C    0.997
    53   1 H    1.019 --    23 C    0.994
    54   1 H    1.034 --    25 C    0.996
    55   1 H    1.034 --    25 C    0.997
    56   1 H    1.033 --    25 C    0.987
    57   1 H    1.039 --    26 C    0.995
    58   1 H    1.037 --    28 C    1.000
    59   1 H    1.018 --    29 C    0.993
    60   1 H    1.086 --    32 N    0.960
    61   1 H    1.042 --    34 C    0.995
    62   1 H    1.035 --    36 C    0.995
    63   1 H    1.035 --    36 C    0.999
    64   1 H    1.032 --    36 C    0.986
    65   1 H    1.019 --    37 C    0.994
    66   1 H    1.035 --    39 C    0.996
    67   1 H    1.033 --    39 C    0.987
    68   1 H    1.034 --    39 C    0.997
    69   1 H    1.039 --    40 C    0.995
    70   6 C    3.818 --    99 C    1.385    71 C    1.375   110 H    0.996
    71   6 C    3.925 --    70 C    1.375    72 C    1.239    75 N    1.230
    72   6 C    3.841 --    73 C    1.601    71 C    1.239   111 H    0.993
    73   6 C    3.825 --    72 C    1.601    74 C    1.251   112 H    0.999
    74   6 C    3.900 --    76 C    1.344    73 C    1.251    75 N    1.230
    75   7 N    3.247 --    74 C    1.230    71 C    1.230   113 H    0.961
    76   6 C    3.844 --    77 C    1.370    74 C    1.344   102 C    1.049
    77   6 C    3.926 --    76 C    1.370    80 N    1.356    78 C    1.161
    78   6 C    3.840 --    79 C    1.695    77 C    1.161   114 H    0.999
    79   6 C    3.852 --    78 C    1.695    81 C    1.165   115 H    0.999
    80   7 N    2.568 --    81 C    1.413    77 C    1.356
    81   6 C    3.945 --    80 N    1.413    82 C    1.291    79 C    1.165
    82   6 C    3.852 --    83 C    1.292    81 C    1.291   174 C    1.214
    83   6 C    3.906 --    82 C    1.292    84 C    1.264   101 N    1.250
    84   6 C    3.836 --    85 C    1.588    83 C    1.264   116 H    0.998
    85   6 C    3.819 --    84 C    1.588    86 C    1.257   117 H    0.998
    86   6 C    3.896 --    87 C    1.349    85 C    1.257   101 N    1.222
    87   6 C    3.832 --    96 C    1.357    86 C    1.349    88 C    1.051
    88   6 C    3.904 --    95 C    1.425    89 C    1.424    87 C    1.051
    89   6 C    3.824 --    90 C    1.437    88 C    1.424   118 H    0.995
    90   6 C    3.924 --    89 C    1.437    92 C    1.430    91 C    1.010
    91   6 C    3.917 --    90 C    1.010   121 H    0.997   120 H    0.996
                           119 H    0.986
    92   6 C    3.835 --    93 C    1.432    90 C    1.430   122 H    0.994
    93   6 C    3.923 --    95 C    1.435    92 C    1.432    94 C    1.010
    94   6 C    3.917 --    93 C    1.010   124 H    0.997   123 H    0.996
                           125 H    0.987
    95   6 C    3.819 --    93 C    1.435    88 C    1.425   126 H    0.995
    96   6 C    3.945 --   100 N    1.381    87 C    1.357    97 C    1.154
    97   6 C    3.844 --    98 C    1.707    96 C    1.154   127 H    1.000
    98   6 C    3.864 --    97 C    1.707    99 C    1.147   128 H    0.993
    99   6 C    3.968 --    70 C    1.385   100 N    1.375    98 C    1.147
   100   7 N    2.555 --    96 C    1.381    99 C    1.375
   101   7 N    3.258 --    83 C    1.250    86 C    1.222   129 H    0.960
   102   6 C    3.904 --   103 C    1.429   109 C    1.422    76 C    1.049
   103   6 C    3.824 --   104 C    1.432   102 C    1.429   130 H    0.995
   104   6 C    3.924 --   106 C    1.435   103 C    1.432   105 C    1.010
   105   6 C    3.916 --   104 C    1.010   132 H    0.999   131 H    0.995
                           133 H    0.986
   106   6 C    3.836 --   104 C    1.435   107 C    1.427   134 H    0.994
   107   6 C    3.923 --   109 C    1.439   106 C    1.427   108 C    1.010
   108   6 C    3.918 --   107 C    1.010   137 H    0.997   135 H    0.997
                           136 H    0.987
   109   6 C    3.819 --   107 C    1.439   102 C    1.422   138 H    0.995
   110   1 H    1.032 --    70 C    0.996
   111   1 H    1.015 --    72 C    0.993
   112   1 H    1.034 --    73 C    0.999
   113   1 H    1.082 --    75 N    0.961
   114   1 H    1.037 --    78 C    0.999
   115   1 H    1.030 --    79 C    0.999
   116   1 H    1.026 --    84 C    0.998
   117   1 H    1.034 --    85 C    0.998
   118   1 H    1.042 --    89 C    0.995
   119   1 H    1.033 --    91 C    0.986
   120   1 H    1.035 --    91 C    0.996
   121   1 H    1.034 --    91 C    0.997
   122   1 H    1.019 --    92 C    0.994
   123   1 H    1.034 --    94 C    0.996
   124   1 H    1.034 --    94 C    0.997
   125   1 H    1.033 --    94 C    0.987
   126   1 H    1.039 --    95 C    0.995
   127   1 H    1.037 --    97 C    1.000
   128   1 H    1.018 --    98 C    0.993
   129   1 H    1.086 --   101 N    0.960
   130   1 H    1.042 --   103 C    0.995
   131   1 H    1.035 --   105 C    0.995
   132   1 H    1.035 --   105 C    0.999
   133   1 H    1.032 --   105 C    0.986
   134   1 H    1.019 --   106 C    0.994
   135   1 H    1.035 --   108 C    0.997
   136   1 H    1.032 --   108 C    0.987
   137   1 H    1.034 --   108 C    0.997
   138   1 H    1.038 --   109 C    0.995
   139   6 C    3.803 --   140 C    2.506   141 C    1.323
   140   6 C    3.799 --   139 C    2.506    13 C    1.214   142 C    0.181
   141   6 C    3.798 --   142 C    2.503   139 C    1.323
   142   6 C    3.802 --   141 C    2.503   175 C    1.217   140 C    0.181
   143   6 C    3.799 --   144 C    2.492   145 C    1.334
   144   6 C    3.801 --   143 C    2.492   187 C    1.227   146 C    0.181
   145   6 C    3.799 --   146 C    2.492   143 C    1.334
   146   6 C    3.801 --   145 C    2.492   243 C    1.228   144 C    0.181
   147   6 C    3.799 --   148 C    2.492   149 C    1.334
   148   6 C    3.801 --   147 C    2.492   255 C    1.228   150 C    0.181
   149   6 C    3.799 --   150 C    2.492   147 C    1.334
   150   6 C    3.801 --   149 C    2.492   311 C    1.228   148 C    0.181
   151   6 C    3.800 --   152 C    2.493   153 C    1.333
   152   6 C    3.801 --   151 C    2.493   323 C    1.227   154 C    0.181
   153   6 C    3.800 --   154 C    2.493   151 C    1.333
   154   6 C    3.801 --   153 C    2.493   379 C    1.227   152 C    0.181
   155   6 C    3.800 --   156 C    2.493   157 C    1.333
   156   6 C    3.802 --   155 C    2.493   391 C    1.227   158 C    0.181
   157   6 C    3.800 --   158 C    2.493   155 C    1.333
   158   6 C    3.802 --   157 C    2.493   447 C    1.227   156 C    0.181
   159   6 C    3.800 --   160 C    2.493   161 C    1.333
   160   6 C    3.801 --   159 C    2.493   459 C    1.227   162 C    0.181
   161   6 C    3.800 --   162 C    2.493   159 C    1.333
   162   6 C    3.801 --   161 C    2.493   515 C    1.227   160 C    0.181
   163   6 C    3.799 --   164 C    2.492   165 C    1.334
   164   6 C    3.801 --   163 C    2.492   527 C    1.228   166 C    0.181
   165   6 C    3.799 --   166 C    2.492   163 C    1.334
   166   6 C    3.801 --   165 C    2.492   583 C    1.228   164 C    0.181
   167   6 C    3.799 --   168 C    2.491   169 C    1.334
   168   6 C    3.801 --   167 C    2.491   595 C    1.228   170 C    0.181
   169   6 C    3.799 --   170 C    2.492   167 C    1.334
   170   6 C    3.801 --   169 C    2.492   651 C    1.228   168 C    0.181
   171   6 C    3.799 --   172 C    2.503   173 C    1.324
   172   6 C    3.802 --   171 C    2.503   663 C    1.218   174 C    0.181
   173   6 C    3.803 --   174 C    2.506   171 C    1.324
   174   6 C    3.799 --   173 C    2.506    82 C    1.214   172 C    0.181
   175   6 C    3.832 --   204 C    1.288   176 C    1.286   142 C    1.217
   176   6 C    3.907 --   175 C    1.286   177 C    1.269   180 N    1.251
   177   6 C    3.829 --   178 C    1.580   176 C    1.269   215 H    0.999
   178   6 C    3.822 --   177 C    1.580   179 C    1.263   216 H    0.999
   179   6 C    3.887 --   181 C    1.341   178 C    1.263   180 N    1.221
   180   7 N    3.249 --   176 C    1.251   179 C    1.221   217 H    0.961
   181   6 C    3.835 --   182 C    1.374   179 C    1.341   207 C    1.048
   182   6 C    3.924 --   181 C    1.374   185 N    1.352   183 C    1.163
   183   6 C    3.838 --   184 C    1.692   182 C    1.163   218 H    0.999
   184   6 C    3.849 --   183 C    1.692   186 C    1.167   219 H    1.000
   185   7 N    2.552 --   186 C    1.417   182 C    1.352
   186   6 C    3.944 --   185 N    1.417   187 C    1.284   184 C    1.167
   187   6 C    3.832 --   186 C    1.284   188 C    1.283   144 C    1.227
   188   6 C    3.905 --   187 C    1.283   189 C    1.271   206 N    1.252
   189   6 C    3.830 --   190 C    1.579   188 C    1.271   220 H    0.999
   190   6 C    3.820 --   189 C    1.579   191 C    1.264   221 H    0.999
   191   6 C    3.887 --   192 C    1.338   190 C    1.264   206 N    1.223
   192   6 C    3.833 --   201 C    1.376   191 C    1.338   193 C    1.049
   193   6 C    3.904 --   200 C    1.428   194 C    1.424   192 C    1.049
   194   6 C    3.823 --   195 C    1.438   193 C    1.424   222 H    0.995
   195   6 C    3.923 --   194 C    1.438   197 C    1.429   196 C    1.010
   196   6 C    3.917 --   195 C    1.010   225 H    0.997   224 H    0.996
                           223 H    0.987
   197   6 C    3.835 --   198 C    1.434   195 C    1.429   226 H    0.994
   198   6 C    3.923 --   197 C    1.434   200 C    1.433   199 C    1.010
   199   6 C    3.917 --   198 C    1.010   229 H    0.998   227 H    0.996
                           228 H    0.986
   200   6 C    3.819 --   198 C    1.433   193 C    1.428   230 H    0.995
   201   6 C    3.926 --   192 C    1.376   205 N    1.352   202 C    1.161
   202   6 C    3.840 --   203 C    1.694   201 C    1.161   231 H    0.999
   203   6 C    3.850 --   202 C    1.694   204 C    1.166   232 H    0.999
   204   6 C    3.946 --   205 N    1.415   175 C    1.288   203 C    1.166
   205   7 N    2.550 --   204 C    1.415   201 C    1.352
   206   7 N    3.251 --   188 C    1.252   191 C    1.223   233 H    0.961
   207   6 C    3.904 --   208 C    1.427   214 C    1.425   181 C    1.048
   208   6 C    3.819 --   209 C    1.434   207 C    1.427   234 H    0.995
   209   6 C    3.923 --   208 C    1.434   211 C    1.433   210 C    1.010
   210   6 C    3.917 --   209 C    1.010   235 H    0.998   236 H    0.996
                           237 H    0.986
   211   6 C    3.835 --   209 C    1.433   212 C    1.430   238 H    0.994
   212   6 C    3.923 --   214 C    1.437   211 C    1.430   213 C    1.010
   213   6 C    3.917 --   212 C    1.010   240 H    0.997   239 H    0.996
                           241 H    0.987
   214   6 C    3.823 --   212 C    1.437   207 C    1.425   242 H    0.995
   215   1 H    1.026 --   177 C    0.999
   216   1 H    1.034 --   178 C    0.999
   217   1 H    1.083 --   180 N    0.961
   218   1 H    1.039 --   183 C    0.999
   219   1 H    1.030 --   184 C    1.000
   220   1 H    1.026 --   189 C    0.999
   221   1 H    1.033 --   190 C    0.999
   222   1 H    1.042 --   194 C    0.995
   223   1 H    1.033 --   196 C    0.987
   224   1 H    1.035 --   196 C    0.996
   225   1 H    1.035 --   196 C    0.997
   226   1 H    1.019 --   197 C    0.994
   227   1 H    1.034 --   199 C    0.996
   228   1 H    1.032 --   199 C    0.986
   229   1 H    1.035 --   199 C    0.998
   230   1 H    1.038 --   200 C    0.995
   231   1 H    1.039 --   202 C    0.999
   232   1 H    1.031 --   203 C    0.999
   233   1 H    1.084 --   206 N    0.961
   234   1 H    1.038 --   208 C    0.995
   235   1 H    1.035 --   210 C    0.998
   236   1 H    1.034 --   210 C    0.996
   237   1 H    1.032 --   210 C    0.986
   238   1 H    1.019 --   211 C    0.994
   239   1 H    1.035 --   213 C    0.996
   240   1 H    1.035 --   213 C    0.997
   241   1 H    1.033 --   213 C    0.987
   242   1 H    1.042 --   214 C    0.995
   243   6 C    3.830 --   272 C    1.284   244 C    1.282   146 C    1.228
   244   6 C    3.906 --   243 C    1.282   245 C    1.271   248 N    1.253
   245   6 C    3.829 --   246 C    1.578   244 C    1.271   283 H    0.999
   246   6 C    3.821 --   245 C    1.578   247 C    1.264   284 H    0.999
   247   6 C    3.887 --   249 C    1.339   246 C    1.264   248 N    1.222
   248   7 N    3.249 --   244 C    1.253   247 C    1.222   285 H    0.961
   249   6 C    3.833 --   250 C    1.375   247 C    1.339   275 C    1.049
   250   6 C    3.925 --   249 C    1.375   253 N    1.351   251 C    1.163
   251   6 C    3.839 --   252 C    1.692   250 C    1.163   286 H    1.000
   252   6 C    3.849 --   251 C    1.692   254 C    1.167   287 H    1.000
   253   7 N    2.550 --   254 C    1.418   250 C    1.351
   254   6 C    3.945 --   253 N    1.418   255 C    1.284   252 C    1.167
   255   6 C    3.831 --   254 C    1.284   256 C    1.282   148 C    1.228
   256   6 C    3.906 --   255 C    1.282   257 C    1.271   274 N    1.252
   257   6 C    3.829 --   258 C    1.578   256 C    1.271   288 H    0.999
   258   6 C    3.821 --   257 C    1.578   259 C    1.264   289 H    0.999
   259   6 C    3.887 --   260 C    1.339   258 C    1.264   274 N    1.222
   260   6 C    3.833 --   269 C    1.376   259 C    1.339   261 C    1.049
   261   6 C    3.904 --   268 C    1.428   262 C    1.423   260 C    1.049
   262   6 C    3.823 --   263 C    1.438   261 C    1.423   290 H    0.995
   263   6 C    3.923 --   262 C    1.438   265 C    1.429   264 C    1.010
   264   6 C    3.917 --   263 C    1.010   293 H    0.997   292 H    0.996
                           291 H    0.987
   265   6 C    3.835 --   266 C    1.434   263 C    1.429   294 H    0.994
   266   6 C    3.923 --   265 C    1.434   268 C    1.433   267 C    1.010
   267   6 C    3.917 --   266 C    1.010   297 H    0.998   295 H    0.996
                           296 H    0.986
   268   6 C    3.818 --   266 C    1.433   261 C    1.428   298 H    0.995
   269   6 C    3.925 --   260 C    1.376   273 N    1.351   270 C    1.163
   270   6 C    3.838 --   271 C    1.692   269 C    1.163   299 H    1.000
   271   6 C    3.849 --   270 C    1.692   272 C    1.167   300 H    1.000
   272   6 C    3.945 --   273 N    1.418   243 C    1.284   271 C    1.167
   273   7 N    2.550 --   272 C    1.418   269 C    1.351
   274   7 N    3.250 --   256 C    1.252   259 C    1.222   301 H    0.962
   275   6 C    3.904 --   276 C    1.427   282 C    1.424   249 C    1.049
   276   6 C    3.818 --   277 C    1.434   275 C    1.427   302 H    0.995
   277   6 C    3.923 --   276 C    1.434   279 C    1.433   278 C    1.010
   278   6 C    3.917 --   277 C    1.010   303 H    0.998   304 H    0.996
                           305 H    0.986
   279   6 C    3.835 --   277 C    1.433   280 C    1.429   306 H    0.994
   280   6 C    3.923 --   282 C    1.437   279 C    1.429   281 C    1.010
   281   6 C    3.917 --   280 C    1.010   308 H    0.997   307 H    0.997
                           309 H    0.987
   282   6 C    3.823 --   280 C    1.437   275 C    1.424   310 H    0.995
   283   1 H    1.026 --   245 C    0.999
   284   1 H    1.034 --   246 C    0.999
   285   1 H    1.084 --   248 N    0.961
   286   1 H    1.040 --   251 C    1.000
   287   1 H    1.030 --   252 C    1.000
   288   1 H    1.026 --   257 C    0.999
   289   1 H    1.033 --   258 C    0.999
   290   1 H    1.042 --   262 C    0.995
   291   1 H    1.033 --   264 C    0.987
   292   1 H    1.035 --   264 C    0.996
   293   1 H    1.035 --   264 C    0.997
   294   1 H    1.019 --   265 C    0.994
   295   1 H    1.034 --   267 C    0.996
   296   1 H    1.032 --   267 C    0.986
   297   1 H    1.035 --   267 C    0.998
   298   1 H    1.038 --   268 C    0.995
   299   1 H    1.040 --   270 C    1.000
   300   1 H    1.031 --   271 C    1.000
   301   1 H    1.084 --   274 N    0.962
   302   1 H    1.038 --   276 C    0.995
   303   1 H    1.035 --   278 C    0.998
   304   1 H    1.034 --   278 C    0.996
   305   1 H    1.032 --   278 C    0.986
   306   1 H    1.019 --   279 C    0.994
   307   1 H    1.035 --   281 C    0.997
   308   1 H    1.035 --   281 C    0.997
   309   1 H    1.033 --   281 C    0.987
   310   1 H    1.042 --   282 C    0.995
   311   6 C    3.832 --   340 C    1.284   312 C    1.282   150 C    1.228
   312   6 C    3.906 --   311 C    1.282   313 C    1.271   316 N    1.252
   313   6 C    3.830 --   314 C    1.579   312 C    1.271   351 H    0.999
   314   6 C    3.821 --   313 C    1.579   315 C    1.264   352 H    0.999
   315   6 C    3.887 --   317 C    1.338   314 C    1.264   316 N    1.222
   316   7 N    3.250 --   312 C    1.252   315 C    1.222   353 H    0.962
   317   6 C    3.833 --   318 C    1.376   315 C    1.338   343 C    1.049
   318   6 C    3.925 --   317 C    1.376   321 N    1.351   319 C    1.162
   319   6 C    3.839 --   320 C    1.692   318 C    1.162   354 H    1.000
   320   6 C    3.850 --   319 C    1.692   322 C    1.167   355 H    1.000
   321   7 N    2.551 --   322 C    1.418   318 C    1.351
   322   6 C    3.945 --   321 N    1.418   323 C    1.284   320 C    1.167
   323   6 C    3.832 --   322 C    1.284   324 C    1.282   152 C    1.227
   324   6 C    3.906 --   323 C    1.282   325 C    1.271   342 N    1.252
   325   6 C    3.830 --   326 C    1.579   324 C    1.271   356 H    0.999
   326   6 C    3.821 --   325 C    1.579   327 C    1.264   357 H    0.999
   327   6 C    3.887 --   328 C    1.339   326 C    1.264   342 N    1.222
   328   6 C    3.834 --   337 C    1.375   327 C    1.339   329 C    1.049
   329   6 C    3.904 --   336 C    1.428   330 C    1.423   328 C    1.049
   330   6 C    3.823 --   331 C    1.438   329 C    1.423   358 H    0.995
   331   6 C    3.923 --   330 C    1.438   333 C    1.429   332 C    1.010
   332   6 C    3.917 --   331 C    1.010   361 H    0.997   360 H    0.996
                           359 H    0.987
   333   6 C    3.835 --   334 C    1.434   331 C    1.429   362 H    0.994
   334   6 C    3.923 --   333 C    1.434   336 C    1.433   335 C    1.010
   335   6 C    3.917 --   334 C    1.010   365 H    0.998   363 H    0.996
                           364 H    0.986
   336   6 C    3.818 --   334 C    1.433   329 C    1.428   366 H    0.995
   337   6 C    3.925 --   328 C    1.375   341 N    1.351   338 C    1.162
   338   6 C    3.838 --   339 C    1.692   337 C    1.162   367 H    1.000
   339   6 C    3.849 --   338 C    1.692   340 C    1.168   368 H    1.000
   340   6 C    3.945 --   341 N    1.417   311 C    1.284   339 C    1.168
   341   7 N    2.551 --   340 C    1.417   337 C    1.351
   342   7 N    3.250 --   324 C    1.252   327 C    1.222   369 H    0.962
   343   6 C    3.904 --   344 C    1.427   350 C    1.424   317 C    1.049
   344   6 C    3.818 --   345 C    1.434   343 C    1.427   370 H    0.995
   345   6 C    3.923 --   344 C    1.434   347 C    1.433   346 C    1.010
   346   6 C    3.917 --   345 C    1.010   371 H    0.998   372 H    0.996
                           373 H    0.986
   347   6 C    3.835 --   345 C    1.433   348 C    1.429   374 H    0.994
   348   6 C    3.923 --   350 C    1.437   347 C    1.429   349 C    1.010
   349   6 C    3.917 --   348 C    1.010   376 H    0.997   375 H    0.997
                           377 H    0.987
   350   6 C    3.823 --   348 C    1.437   343 C    1.424   378 H    0.995
   351   1 H    1.026 --   313 C    0.999
   352   1 H    1.033 --   314 C    0.999
   353   1 H    1.084 --   316 N    0.962
   354   1 H    1.040 --   319 C    1.000
   355   1 H    1.030 --   320 C    1.000
   356   1 H    1.026 --   325 C    0.999
   357   1 H    1.033 --   326 C    0.999
   358   1 H    1.042 --   330 C    0.995
   359   1 H    1.033 --   332 C    0.987
   360   1 H    1.035 --   332 C    0.996
   361   1 H    1.035 --   332 C    0.997
   362   1 H    1.019 --   333 C    0.994
   363   1 H    1.034 --   335 C    0.996
   364   1 H    1.032 --   335 C    0.986
   365   1 H    1.035 --   335 C    0.998
   366   1 H    1.038 --   336 C    0.995
   367   1 H    1.040 --   338 C    1.000
   368   1 H    1.030 --   339 C    1.000
   369   1 H    1.083 --   342 N    0.962
   370   1 H    1.038 --   344 C    0.995
   371   1 H    1.035 --   346 C    0.998
   372   1 H    1.034 --   346 C    0.996
   373   1 H    1.032 --   346 C    0.986
   374   1 H    1.019 --   347 C    0.994
   375   1 H    1.035 --   349 C    0.997
   376   1 H    1.035 --   349 C    0.997
   377   1 H    1.033 --   349 C    0.987
   378   1 H    1.042 --   350 C    0.995
   379   6 C    3.833 --   408 C    1.284   380 C    1.283   154 C    1.227
   380   6 C    3.906 --   379 C    1.283   381 C    1.271   384 N    1.252
   381   6 C    3.830 --   382 C    1.579   380 C    1.271   419 H    0.999
   382   6 C    3.821 --   381 C    1.579   383 C    1.264   420 H    0.999
   383   6 C    3.887 --   385 C    1.339   382 C    1.264   384 N    1.223
   384   7 N    3.250 --   380 C    1.252   383 C    1.223   421 H    0.962
   385   6 C    3.834 --   386 C    1.375   383 C    1.339   411 C    1.049
   386   6 C    3.925 --   385 C    1.375   389 N    1.351   387 C    1.162
   387   6 C    3.839 --   388 C    1.692   386 C    1.162   422 H    1.000
   388   6 C    3.850 --   387 C    1.692   390 C    1.167   423 H    1.000
   389   7 N    2.551 --   390 C    1.417   386 C    1.351
   390   6 C    3.945 --   389 N    1.417   391 C    1.284   388 C    1.167
   391   6 C    3.833 --   390 C    1.284   392 C    1.283   156 C    1.227
   392   6 C    3.906 --   391 C    1.283   393 C    1.271   410 N    1.252
   393   6 C    3.830 --   394 C    1.579   392 C    1.271   424 H    0.999
   394   6 C    3.821 --   393 C    1.579   395 C    1.264   425 H    0.999
   395   6 C    3.887 --   396 C    1.339   394 C    1.264   410 N    1.222
   396   6 C    3.834 --   405 C    1.375   395 C    1.339   397 C    1.049
   397   6 C    3.904 --   404 C    1.428   398 C    1.424   396 C    1.049
   398   6 C    3.823 --   399 C    1.438   397 C    1.424   426 H    0.995
   399   6 C    3.923 --   398 C    1.438   401 C    1.429   400 C    1.010
   400   6 C    3.917 --   399 C    1.010   429 H    0.997   428 H    0.996
                           427 H    0.987
   401   6 C    3.835 --   402 C    1.434   399 C    1.429   430 H    0.994
   402   6 C    3.923 --   401 C    1.434   404 C    1.433   403 C    1.010
   403   6 C    3.917 --   402 C    1.010   433 H    0.998   431 H    0.996
                           432 H    0.986
   404   6 C    3.818 --   402 C    1.433   397 C    1.428   434 H    0.995
   405   6 C    3.925 --   396 C    1.375   409 N    1.352   406 C    1.162
   406   6 C    3.838 --   407 C    1.692   405 C    1.162   435 H    1.000
   407   6 C    3.850 --   406 C    1.692   408 C    1.167   436 H    1.000
[...]
   418   6 C    3.823 --   416 C    1.437   411 C    1.424   446 H    0.995
   419   1 H    1.026 --   381 C    0.999
   420   1 H    1.033 --   382 C    0.999
   421   1 H    1.083 --   384 N    0.962
   422   1 H    1.040 --   387 C    1.000
   423   1 H    1.030 --   388 C    1.000
   424   1 H    1.026 --   393 C    0.999
   425   1 H    1.033 --   394 C    0.999
   426   1 H    1.042 --   398 C    0.995
   427   1 H    1.033 --   400 C    0.987
   428   1 H    1.035 --   400 C    0.996
   429   1 H    1.035 --   400 C    0.997
   430   1 H    1.019 --   401 C    0.994
   431   1 H    1.034 --   403 C    0.996
   432   1 H    1.032 --   403 C    0.986
   433   1 H    1.035 --   403 C    0.998
   434   1 H    1.038 --   404 C    0.995
   435   1 H    1.039 --   406 C    1.000
   436   1 H    1.030 --   407 C    1.000
   437   1 H    1.083 --   410 N    0.962
   438   1 H    1.038 --   412 C    0.995
   439   1 H    1.035 --   414 C    0.998
   440   1 H    1.034 --   414 C    0.996
   441   1 H    1.032 --   414 C    0.986
   442   1 H    1.019 --   415 C    0.994
   443   1 H    1.035 --   417 C    0.997
   444   1 H    1.035 --   417 C    0.997
   445   1 H    1.033 --   417 C    0.987
   446   1 H    1.042 --   418 C    0.995
   447   6 C    3.833 --   476 C    1.284   448 C    1.283   158 C    1.227
   448   6 C    3.906 --   447 C    1.283   449 C    1.271   452 N    1.252
   449   6 C    3.830 --   450 C    1.579   448 C    1.271   487 H    0.999
   450   6 C    3.821 --   449 C    1.579   451 C    1.264   488 H    0.999
   451   6 C    3.887 --   453 C    1.339   450 C    1.264   452 N    1.222
   452   7 N    3.250 --   448 C    1.252   451 C    1.222   489 H    0.962
   453   6 C    3.834 --   454 C    1.375   451 C    1.339   479 C    1.049
   454   6 C    3.925 --   453 C    1.375   457 N    1.352   455 C    1.162
   455   6 C    3.838 --   456 C    1.692   454 C    1.162   490 H    1.000
   456   6 C    3.850 --   455 C    1.692   458 C    1.167   491 H    1.000
   457   7 N    2.551 --   458 C    1.417   454 C    1.352
   458   6 C    3.945 --   457 N    1.417   459 C    1.284   456 C    1.167
   459   6 C    3.833 --   458 C    1.284   460 C    1.283   160 C    1.227
   460   6 C    3.906 --   459 C    1.283   461 C    1.271   478 N    1.252
   461   6 C    3.830 --   462 C    1.579   460 C    1.271   492 H    0.999
   462   6 C    3.821 --   461 C    1.579   463 C    1.264   493 H    0.999
   463   6 C    3.887 --   464 C    1.339   462 C    1.264   478 N    1.223
   464   6 C    3.834 --   473 C    1.375   463 C    1.339   465 C    1.049
   465   6 C    3.904 --   472 C    1.427   466 C    1.424   464 C    1.049
   466   6 C    3.823 --   467 C    1.438   465 C    1.424   494 H    0.995
   467   6 C    3.923 --   466 C    1.438   469 C    1.429   468 C    1.010
   468   6 C    3.917 --   467 C    1.010   497 H    0.997   496 H    0.996
                           495 H    0.987
   469   6 C    3.835 --   470 C    1.434   467 C    1.429   498 H    0.994
   470   6 C    3.923 --   469 C    1.434   472 C    1.433   471 C    1.010
   471   6 C    3.917 --   470 C    1.010   501 H    0.998   499 H    0.996
                           500 H    0.986
   472   6 C    3.818 --   470 C    1.433   465 C    1.427   502 H    0.995
   473   6 C    3.925 --   464 C    1.375   477 N    1.352   474 C    1.162
   474   6 C    3.839 --   475 C    1.692   473 C    1.162   503 H    1.000
   475   6 C    3.850 --   474 C    1.692   476 C    1.167   504 H    1.000
   476   6 C    3.945 --   477 N    1.417   447 C    1.284   475 C    1.167
   477   7 N    2.551 --   476 C    1.417   473 C    1.352
   478   7 N    3.250 --   460 C    1.252   463 C    1.223   505 H    0.962
   479   6 C    3.904 --   480 C    1.427   486 C    1.424   453 C    1.049
   480   6 C    3.818 --   481 C    1.433   479 C    1.427   506 H    0.995
   481   6 C    3.923 --   483 C    1.433   480 C    1.433   482 C    1.010
   482   6 C    3.917 --   481 C    1.010   507 H    0.998   508 H    0.996
                           509 H    0.986
   483   6 C    3.835 --   481 C    1.433   484 C    1.429   510 H    0.994
   484   6 C    3.923 --   486 C    1.437   483 C    1.429   485 C    1.010
   485   6 C    3.917 --   484 C    1.010   511 H    0.997   512 H    0.997
                           513 H    0.987
   486   6 C    3.823 --   484 C    1.437   479 C    1.424   514 H    0.995
   487   1 H    1.026 --   449 C    0.999
   488   1 H    1.033 --   450 C    0.999
   489   1 H    1.083 --   452 N    0.962
   490   1 H    1.039 --   455 C    1.000
   491   1 H    1.030 --   456 C    1.000
   492   1 H    1.026 --   461 C    0.999
   493   1 H    1.033 --   462 C    0.999
   494   1 H    1.042 --   466 C    0.995
   495   1 H    1.033 --   468 C    0.987
   496   1 H    1.035 --   468 C    0.996
   497   1 H    1.035 --   468 C    0.997
   498   1 H    1.019 --   469 C    0.994
   499   1 H    1.034 --   471 C    0.996
   500   1 H    1.032 --   471 C    0.986
   501   1 H    1.035 --   471 C    0.998
   502   1 H    1.038 --   472 C    0.995
   503   1 H    1.040 --   474 C    1.000
   504   1 H    1.030 --   475 C    1.000
   505   1 H    1.083 --   478 N    0.962
   506   1 H    1.038 --   480 C    0.995
   507   1 H    1.035 --   482 C    0.998
   508   1 H    1.034 --   482 C    0.996
   509   1 H    1.032 --   482 C    0.986
   510   1 H    1.019 --   483 C    0.994
   511   1 H    1.035 --   485 C    0.997
   512   1 H    1.035 --   485 C    0.997
   513   1 H    1.033 --   485 C    0.987
   514   1 H    1.042 --   486 C    0.995
   515   6 C    3.832 --   544 C    1.284   516 C    1.282   162 C    1.227
   516   6 C    3.906 --   515 C    1.282   517 C    1.271   520 N    1.252
   517   6 C    3.830 --   518 C    1.579   516 C    1.271   555 H    0.999
   518   6 C    3.821 --   517 C    1.579   519 C    1.264   556 H    0.999
   519   6 C    3.887 --   521 C    1.339   518 C    1.264   520 N    1.222
   520   7 N    3.250 --   516 C    1.252   519 C    1.222   557 H    0.962
   521   6 C    3.834 --   522 C    1.375   519 C    1.339   547 C    1.049
   522   6 C    3.925 --   521 C    1.375   525 N    1.351   523 C    1.162
   523   6 C    3.838 --   524 C    1.692   522 C    1.162   558 H    1.000
   524   6 C    3.849 --   523 C    1.692   526 C    1.168   559 H    1.000
   525   7 N    2.551 --   526 C    1.417   522 C    1.351
   526   6 C    3.945 --   525 N    1.417   527 C    1.284   524 C    1.168
   527   6 C    3.832 --   526 C    1.284   528 C    1.282   164 C    1.228
   528   6 C    3.906 --   527 C    1.282   529 C    1.271   546 N    1.252
   529   6 C    3.830 --   530 C    1.579   528 C    1.271   560 H    0.999
   530   6 C    3.821 --   529 C    1.579   531 C    1.264   561 H    0.999
   531   6 C    3.887 --   532 C    1.338   530 C    1.264   546 N    1.222
   532   6 C    3.833 --   541 C    1.376   531 C    1.338   533 C    1.049
   533   6 C    3.904 --   540 C    1.427   534 C    1.424   532 C    1.049
   534   6 C    3.823 --   535 C    1.437   533 C    1.424   562 H    0.995
   535   6 C    3.923 --   534 C    1.437   537 C    1.429   536 C    1.010
   536   6 C    3.917 --   535 C    1.010   565 H    0.997   564 H    0.996
                           563 H    0.987
   537   6 C    3.835 --   538 C    1.433   535 C    1.429   566 H    0.994
   538   6 C    3.923 --   537 C    1.433   540 C    1.433   539 C    1.010
   539   6 C    3.917 --   538 C    1.010   569 H    0.998   567 H    0.996
                           568 H    0.986
   540   6 C    3.818 --   538 C    1.433   533 C    1.427   570 H    0.995
   541   6 C    3.925 --   532 C    1.376   545 N    1.351   542 C    1.162
   542   6 C    3.839 --   543 C    1.692   541 C    1.162   571 H    1.000
   543   6 C    3.850 --   542 C    1.692   544 C    1.167   572 H    1.000
   544   6 C    3.945 --   545 N    1.418   515 C    1.284   543 C    1.167
   545   7 N    2.551 --   544 C    1.418   541 C    1.351
   546   7 N    3.250 --   528 C    1.252   531 C    1.222   573 H    0.962
   547   6 C    3.904 --   548 C    1.427   554 C    1.424   521 C    1.049
   548   6 C    3.818 --   549 C    1.433   547 C    1.427   574 H    0.995
   549   6 C    3.923 --   551 C    1.433   548 C    1.433   550 C    1.010
   550   6 C    3.917 --   549 C    1.010   575 H    0.998   576 H    0.996
                           577 H    0.986
   551   6 C    3.835 --   549 C    1.433   552 C    1.429   578 H    0.994
   552   6 C    3.923 --   554 C    1.438   551 C    1.429   553 C    1.010
   553   6 C    3.917 --   552 C    1.010   579 H    0.997   580 H    0.997
                           581 H    0.987
   554   6 C    3.823 --   552 C    1.438   547 C    1.424   582 H    0.995
   555   1 H    1.026 --   517 C    0.999
   556   1 H    1.033 --   518 C    0.999
   557   1 H    1.083 --   520 N    0.962
   558   1 H    1.040 --   523 C    1.000
   559   1 H    1.030 --   524 C    1.000
   560   1 H    1.026 --   529 C    0.999
   561   1 H    1.033 --   530 C    0.999
   562   1 H    1.042 --   534 C    0.995
   563   1 H    1.033 --   536 C    0.987
   564   1 H    1.035 --   536 C    0.996
   565   1 H    1.035 --   536 C    0.997
   566   1 H    1.019 --   537 C    0.994
   567   1 H    1.034 --   539 C    0.996
   568   1 H    1.032 --   539 C    0.986
   569   1 H    1.035 --   539 C    0.998
   570   1 H    1.038 --   540 C    0.995
   571   1 H    1.040 --   542 C    1.000
   572   1 H    1.030 --   543 C    1.000
   573   1 H    1.084 --   546 N    0.962
   574   1 H    1.038 --   548 C    0.995
   575   1 H    1.035 --   550 C    0.998
   576   1 H    1.034 --   550 C    0.996
   577   1 H    1.032 --   550 C    0.986
   578   1 H    1.019 --   551 C    0.994
   579   1 H    1.035 --   553 C    0.997
   580   1 H    1.035 --   553 C    0.997
   581   1 H    1.033 --   553 C    0.987
   582   1 H    1.042 --   554 C    0.995
   583   6 C    3.831 --   612 C    1.283   584 C    1.282   166 C    1.228
   584   6 C    3.906 --   583 C    1.282   585 C    1.271   588 N    1.252
   585   6 C    3.829 --   586 C    1.578   584 C    1.271   623 H    0.999
   586   6 C    3.821 --   585 C    1.578   587 C    1.264   624 H    0.999
   587   6 C    3.887 --   589 C    1.338   586 C    1.264   588 N    1.222
   588   7 N    3.250 --   584 C    1.252   587 C    1.222   625 H    0.962
   589   6 C    3.833 --   590 C    1.376   587 C    1.338   615 C    1.049
   590   6 C    3.925 --   589 C    1.376   593 N    1.351   591 C    1.163
   591   6 C    3.838 --   592 C    1.692   590 C    1.163   626 H    1.000
   592   6 C    3.849 --   591 C    1.692   594 C    1.167   627 H    1.000
   593   7 N    2.550 --   594 C    1.418   590 C    1.351
   594   6 C    3.945 --   593 N    1.418   595 C    1.283   592 C    1.167
   595   6 C    3.830 --   594 C    1.283   596 C    1.281   168 C    1.228
   596   6 C    3.906 --   595 C    1.281   597 C    1.271   614 N    1.253
   597   6 C    3.829 --   598 C    1.578   596 C    1.271   628 H    0.999
   598   6 C    3.821 --   597 C    1.578   599 C    1.264   629 H    0.999
   599   6 C    3.887 --   600 C    1.339   598 C    1.264   614 N    1.222
   600   6 C    3.833 --   609 C    1.375   599 C    1.339   601 C    1.049
   601   6 C    3.904 --   608 C    1.427   602 C    1.424   600 C    1.049
   602   6 C    3.823 --   603 C    1.437   601 C    1.424   630 H    0.995
   603   6 C    3.923 --   602 C    1.437   605 C    1.429   604 C    1.010
   604   6 C    3.917 --   603 C    1.010   633 H    0.997   632 H    0.997
                           631 H    0.987
   605   6 C    3.835 --   606 C    1.433   603 C    1.429   634 H    0.994
   606   6 C    3.923 --   608 C    1.433   605 C    1.433   607 C    1.010
   607   6 C    3.917 --   606 C    1.010   637 H    0.998   635 H    0.996
                           636 H    0.986
   608   6 C    3.818 --   606 C    1.433   601 C    1.427   638 H    0.995
   609   6 C    3.925 --   600 C    1.375   613 N    1.351   610 C    1.163
   610   6 C    3.839 --   611 C    1.692   609 C    1.163   639 H    1.000
   611   6 C    3.849 --   610 C    1.692   612 C    1.167   640 H    1.000
   612   6 C    3.945 --   613 N    1.418   583 C    1.283   611 C    1.167
   613   7 N    2.550 --   612 C    1.418   609 C    1.351
   614   7 N    3.249 --   596 C    1.253   599 C    1.222   641 H    0.961
   615   6 C    3.904 --   616 C    1.427   622 C    1.424   589 C    1.049
   616   6 C    3.818 --   617 C    1.433   615 C    1.427   642 H    0.995
   617   6 C    3.923 --   619 C    1.433   616 C    1.433   618 C    1.010
   618   6 C    3.917 --   617 C    1.010   643 H    0.998   644 H    0.996
                           645 H    0.986
   619   6 C    3.835 --   617 C    1.433   620 C    1.429   646 H    0.994
   620   6 C    3.923 --   622 C    1.438   619 C    1.429   621 C    1.010
   621   6 C    3.917 --   620 C    1.010   647 H    0.997   648 H    0.997
                           649 H    0.987
   622   6 C    3.823 --   620 C    1.438   615 C    1.424   650 H    0.995
   623   1 H    1.026 --   585 C    0.999
   624   1 H    1.033 --   586 C    0.999
   625   1 H    1.084 --   588 N    0.962
   626   1 H    1.040 --   591 C    1.000
   627   1 H    1.031 --   592 C    1.000
   628   1 H    1.026 --   597 C    0.999
   629   1 H    1.034 --   598 C    0.999
   630   1 H    1.042 --   602 C    0.995
   631   1 H    1.033 --   604 C    0.987
   632   1 H    1.035 --   604 C    0.997
   633   1 H    1.035 --   604 C    0.997
   634   1 H    1.019 --   605 C    0.994
   635   1 H    1.034 --   607 C    0.996
   636   1 H    1.032 --   607 C    0.986
   637   1 H    1.035 --   607 C    0.998
   638   1 H    1.038 --   608 C    0.995
   639   1 H    1.040 --   610 C    1.000
   640   1 H    1.030 --   611 C    1.000
   641   1 H    1.084 --   614 N    0.961
   642   1 H    1.038 --   616 C    0.995
   643   1 H    1.035 --   618 C    0.998
   644   1 H    1.034 --   618 C    0.996
   645   1 H    1.032 --   618 C    0.986
   646   1 H    1.019 --   619 C    0.994
   647   1 H    1.035 --   621 C    0.997
   648   1 H    1.035 --   621 C    0.997
   649   1 H    1.033 --   621 C    0.987
   650   1 H    1.042 --   622 C    0.995
   651   6 C    3.832 --   680 C    1.284   652 C    1.282   170 C    1.228
   652   6 C    3.905 --   651 C    1.282   653 C    1.271   656 N    1.252
   653   6 C    3.830 --   654 C    1.579   652 C    1.271   691 H    0.999
   654   6 C    3.820 --   653 C    1.579   655 C    1.264   692 H    0.999
   655   6 C    3.887 --   657 C    1.338   654 C    1.264   656 N    1.223
   656   7 N    3.251 --   652 C    1.252   655 C    1.223   693 H    0.962
   657   6 C    3.833 --   658 C    1.375   655 C    1.338   683 C    1.050
   658   6 C    3.926 --   657 C    1.375   661 N    1.352   659 C    1.162
   659   6 C    3.840 --   660 C    1.693   658 C    1.162   694 H    0.999
   660   6 C    3.849 --   659 C    1.693   662 C    1.166   695 H    1.000
   661   7 N    2.549 --   662 C    1.415   658 C    1.352
   662   6 C    3.946 --   661 N    1.415   663 C    1.288   660 C    1.166
   663   6 C    3.831 --   662 C    1.288   664 C    1.285   172 C    1.218
   664   6 C    3.907 --   663 C    1.285   665 C    1.270   682 N    1.251
   665   6 C    3.829 --   666 C    1.580   664 C    1.270   696 H    0.999
   666   6 C    3.822 --   665 C    1.580   667 C    1.263   697 H    0.999
   667   6 C    3.887 --   668 C    1.340   666 C    1.263   682 N    1.222
   668   6 C    3.835 --   677 C    1.374   667 C    1.340   669 C    1.049
   669   6 C    3.904 --   676 C    1.427   670 C    1.423   668 C    1.049
   670   6 C    3.823 --   671 C    1.438   669 C    1.423   698 H    0.995
   671   6 C    3.923 --   670 C    1.438   673 C    1.428   672 C    1.010
   672   6 C    3.917 --   671 C    1.010   701 H    0.997   700 H    0.996
                           699 H    0.987
   673   6 C    3.835 --   674 C    1.434   671 C    1.428   702 H    0.994
   674   6 C    3.923 --   673 C    1.434   676 C    1.433   675 C    1.010
   675   6 C    3.917 --   674 C    1.010   705 H    0.998   703 H    0.996
                           704 H    0.986
   676   6 C    3.818 --   674 C    1.433   669 C    1.427   706 H    0.995
   677   6 C    3.924 --   668 C    1.374   681 N    1.352   678 C    1.163
   678   6 C    3.838 --   679 C    1.691   677 C    1.163   707 H    0.999
   679   6 C    3.849 --   678 C    1.691   680 C    1.168   708 H    1.000
   680   6 C    3.944 --   681 N    1.418   651 C    1.284   679 C    1.168
   681   7 N    2.552 --   680 C    1.418   677 C    1.352
   682   7 N    3.249 --   664 C    1.251   667 C    1.222   709 H    0.961
   683   6 C    3.904 --   684 C    1.427   690 C    1.423   657 C    1.050
   684   6 C    3.818 --   685 C    1.433   683 C    1.427   710 H    0.995
   685   6 C    3.923 --   687 C    1.433   684 C    1.433   686 C    1.010
   686   6 C    3.917 --   685 C    1.010   711 H    0.998   712 H    0.996
                           713 H    0.986
   687   6 C    3.835 --   685 C    1.433   688 C    1.429   714 H    0.994
   688   6 C    3.923 --   690 C    1.438   687 C    1.429   689 C    1.010
   689   6 C    3.917 --   688 C    1.010   715 H    0.997   716 H    0.997
                           717 H    0.987
   690   6 C    3.823 --   688 C    1.438   683 C    1.423   718 H    0.995
   691   1 H    1.026 --   653 C    0.999
   692   1 H    1.033 --   654 C    0.999
   693   1 H    1.084 --   656 N    0.962
   694   1 H    1.040 --   659 C    0.999
   695   1 H    1.030 --   660 C    1.000
   696   1 H    1.026 --   665 C    0.999
   697   1 H    1.034 --   666 C    0.999
   698   1 H    1.042 --   670 C    0.995
   699   1 H    1.033 --   672 C    0.987
   700   1 H    1.035 --   672 C    0.996
   701   1 H    1.034 --   672 C    0.997
   702   1 H    1.019 --   673 C    0.994
   703   1 H    1.034 --   675 C    0.996
   704   1 H    1.032 --   675 C    0.986
   705   1 H    1.035 --   675 C    0.998
   706   1 H    1.038 --   676 C    0.995
   707   1 H    1.039 --   678 C    0.999
   708   1 H    1.030 --   679 C    1.000
   709   1 H    1.083 --   682 N    0.961
   710   1 H    1.038 --   684 C    0.995
   711   1 H    1.035 --   686 C    0.998
   712   1 H    1.034 --   686 C    0.996
   713   1 H    1.032 --   686 C    0.986
   714   1 H    1.019 --   687 C    0.994
   715   1 H    1.035 --   689 C    0.997
   716   1 H    1.035 --   689 C    0.997
   717   1 H    1.033 --   689 C    0.987
   718   1 H    1.042 --   690 C    0.995
 ---------------------------------------------------------------------------

Topologies differ in total number of bonds
Writing topology from bond orders to xtbtopo.mol

 dipole moment from electron density (au)
     X       Y       Z   
-371.2965   0.0626  -0.1309  total (Debye):  943.742


           -------------------------------------------------
          | TOTAL ENERGY            -1266.380041580545 Eh   |
          | GRADIENT NORM               0.131326386994 Eh/α |
          | HOMO-LUMO GAP               0.040708364442 eV   |
           -------------------------------------------------
########################################################################
[WARNING] Runtime exception occurred
-1- restart_readRestart: Dimension missmatch in restart file.
########################################################################

------------------------------------------------------------------------
 * finished run on 2022/07/27 at 21:42:12.904     
------------------------------------------------------------------------
 total:
 * wall-time:     0 d,  0 h,  6 min, 35.750 sec
 *  cpu-time:     0 d,  0 h,  6 min, 33.180 sec
 * ratio c/w:     0.994 speedup
 SCF:
 * wall-time:     0 d,  0 h,  6 min, 33.018 sec
 *  cpu-time:     0 d,  0 h,  6 min, 30.594 sec
 * ratio c/w:     0.994 speedup

