128
 energy: -217.962080306533 gnorm: 3.096499748767 xtb: 6.5.1 (b24c23e)
Fe          13.17620200000000       -0.02654500000000        0.01394800000000
C            9.83460800000000        0.11674300000000        0.00444700000000
C           10.49687700000000        1.15581700000000       -0.51234400000000
C            9.84632900000000        2.30367300000000       -1.13252900000000
C           10.78654300000000        3.15215800000000       -1.50497200000000
C           12.09146700000000        2.59129400000000       -1.12810600000000
N           11.91431300000000        1.31778900000000       -0.50634300000000
C           13.28358800000000        3.19340800000000       -1.32074300000000
C           13.33331200000000        4.53894100000000       -1.93746400000000
C           13.89025200000000        4.70692000000000       -3.21414700000000
C           13.95351000000000        5.97792500000000       -3.79280300000000
C           13.46450300000000        7.09446300000000       -3.09987300000000
N           13.52941200000000        8.39428000000000       -3.69238200000000
C           12.91345300000000        6.92855700000000       -1.82132000000000
C           12.85053800000000        5.65820600000000       -1.24130500000000
C           14.57477600000000        2.56828000000000       -0.93067500000000
C           15.85823200000000        3.28092100000000       -0.92450500000000
C           16.79274600000000        2.42555100000000       -0.56261900000000
N           14.71743900000000        1.32639000000000       -0.58175800000000
C           16.11263100000000        1.15715900000000       -0.33108900000000
C           16.70682900000000       -0.00097600000000       -0.00068300000000
C           15.94324600000000       -1.24698800000000        0.23212200000000
C           16.47376800000000       -2.46317300000000        0.21227000000000
C           15.43087100000000       -3.39477200000000        0.59601500000000
C           14.33323800000000       -2.68469300000000        0.82978300000000
N           14.56708400000000       -1.29285100000000        0.60935800000000
C           13.05462400000000       -3.25571700000000        1.32529400000000
C           13.07744400000000       -4.59370400000000        1.96520400000000
C           13.81639600000000       -4.79766900000000        3.14073300000000
C           13.85737300000000       -6.06132300000000        3.73719400000000
C           13.16518900000000       -7.13639300000000        3.16225400000000
N           13.20758700000000       -8.42874900000000        3.77286100000000
C           12.43373000000000       -6.93683300000000        1.98304700000000
C           12.39267700000000       -5.67388100000000        1.38523600000000
C           11.89256700000000       -2.58460700000000        1.20920400000000
C           10.58523600000000       -3.02724100000000        1.69114900000000
C            9.72357300000000       -2.10065700000000        1.31844200000000
C           10.47203100000000       -1.06182700000000        0.61279700000000
N           11.73689100000000       -1.33328700000000        0.54301200000000
H            8.75124500000000        0.13470600000000       -0.01901300000000
H            8.78301800000000        2.44721400000000       -1.27577700000000
H           10.59874300000000        4.09402600000000       -2.00356600000000
H           14.27331400000000        3.85330100000000       -3.75994000000000
H           14.38385800000000        6.09284800000000       -4.77966400000000
H           13.93874200000000        8.52822600000000       -4.64389400000000
H           13.16842100000000        9.23218300000000       -3.18397500000000
H           12.53525900000000        7.78299200000000       -1.27432200000000
H           12.42786100000000        5.54524400000000       -0.25043600000000
H           16.02915100000000        4.32132000000000       -1.16795500000000
H           17.84652000000000        2.65079900000000       -0.46647800000000
H           17.49944900000000       -2.71842000000000       -0.01813700000000
H           15.53961800000000       -4.46674800000000        0.69818200000000
H           14.35737800000000       -3.97690700000000        3.59572300000000
H           14.42875200000000       -6.20287400000000        4.64593500000000
H           13.75057700000000       -8.58765800000000        4.65079900000000
H           12.69608700000000       -9.23608200000000        3.35161300000000
H           11.89866500000000       -7.75982400000000        1.52620700000000
H           11.83124000000000       -5.53731200000000        0.46907000000000
H           10.34339900000000       -3.92529200000000        2.24411400000000
H            8.65902000000000       -2.11690100000000        1.51183300000000
Fe          31.04143200000000        0.02534600000000       -0.01391000000000
C           34.38302500000000       -0.06174400000000        0.10027000000000
C           33.72075700000000       -1.06660100000000        0.68079300000000
C           34.37130500000000       -2.21774300000000        1.29485700000000
C           33.43109000000000       -2.99698400000000        1.79628200000000
C           32.12616700000000       -2.37297500000000        1.53703200000000
N           32.30332100000000       -1.15109400000000        0.81911100000000
C           30.93404500000000       -2.86622100000000        1.93245500000000
C           30.88432200000000       -4.12369700000000        2.71319600000000
C           30.32738100000000       -5.28062000000000        2.14780500000000
C           30.26412300000000       -6.46519100000000        2.88746000000000
C           30.75313100000000       -6.50455300000000        4.20095100000000
N           30.68822100000000       -7.71658900000000        4.95696600000000
C           31.30418000000000       -5.34721700000000        4.76910400000000
C           31.36709500000000       -4.16187500000000        4.03074500000000
C           29.64285700000000       -2.19570200000000        1.62693600000000
C           28.35940100000000       -2.58431200000000        2.22432800000000
C           27.42488800000000       -1.81006700000000        1.71133300000000
N           29.50019500000000       -1.21870400000000        0.78461200000000
C           28.10500200000000       -0.91626800000000        0.78205900000000
C           27.51080400000000       -0.00097600000000       -0.00068300000000
C           28.27438700000000        0.88151900000000       -0.91059700000000
C           27.74386600000000        1.53694700000000       -1.93525100000000
C           28.78676200000000        2.37153000000000       -2.49970600000000
C           29.88439600000000        2.17403700000000       -1.77869500000000
N           29.65054900000000        1.22128500000000       -0.74039100000000
C           31.16300900000000        2.90254800000000       -1.98085800000000
C           31.14018900000000        4.17518300000000       -2.74249700000000
C           30.40123699999999        5.26767800000000       -2.26299100000000
C           30.36026100000000        6.46302800000000       -2.98668100000000
C           31.05244400000000        6.57782200000000       -4.20041600000000
N           31.01004600000000        7.80082100000000       -4.94021300000000
C           31.78390400000000        5.48469600000000       -4.68562600000000
C           31.82495600000000        4.28860900000000       -3.96326800000000
C           32.32506600000000        2.43498300000000       -1.48563300000000
C           33.63239800000000        3.08124900000000       -1.58828000000000
C           34.49406000000000        2.25863700000000       -1.02190600000000
C           33.74560300000000        1.09650500000000       -0.54593400000000
N           32.48074300000000        1.18832700000000       -0.81075200000000
H           35.46638799999999       -0.09122200000000        0.10228000000000
H           35.43461600000000       -2.41645100000000        1.33535000000000
H           33.61889000000000       -3.93296600000000        2.30583900000000
H           29.94432000000000       -5.26388900000000        1.13475300000000
H           29.83377500000000       -7.35123200000000        2.43798100000000
H           30.27889200000000       -8.58367900000000        4.54287400000000
H           31.04921200000000       -7.75579800000000        5.93626300000000
H           31.68237400000000       -5.36339400000000        5.78350200000000
H           31.78977200000000       -3.27357600000000        4.48407200000000
H           28.18848300000000       -3.36207400000000        2.95698400000000
H           26.37111300000000       -1.85438900000000        1.95219600000000
H           26.71818500000000        1.48593400000000       -2.27530500000000
H           28.67801499999999        3.04898000000000       -3.33674300000000
H           29.86025500000000        5.19341800000000       -1.32749600000000
H           29.78888100000000        7.29867000000000       -2.60256000000000
H           30.46705700000000        8.62037900000000       -4.58758000000000
H           31.52154600000000        7.89578400000000       -5.84587300000000
H           32.31896800000000        5.55864600000000       -5.62400200000000
H           32.38639300000000        3.44953100000000       -4.35564400000000
H           33.87423500000000        4.03833900000000       -2.03127400000000
H           35.55861300000000        2.42880300000000       -0.92859200000000
C           17.60845300000000        0.01464300000000        0.01024300000000
C           19.06668000000000       -0.00719300000000       -0.00763000000000
C           20.20060800000000       -0.02794700000000       -0.00912100000000
C           21.56198900000000       -0.04053700000000       -0.01131200000000
C           22.83620800000000       -0.03023100000000       -0.01607700000000
C           24.02467100000000       -0.01143200000000       -0.02223400000000
C           25.37703100000000        0.01335200000000       -0.00636600000000
C           26.47729900000000        0.01464300000000        0.01024300000000
128
 energy: -218.767023266112 gnorm: 0.588970581255 xtb: 6.5.1 (b24c23e)
Fe          13.17883751877386       -0.02396795409674        0.01328035774499
C            9.83535748885217        0.10933656315757        0.00851780152772
C           10.50121562465030        1.15751509105783       -0.51285319687739
C            9.84514261019596        2.30044521299187       -1.13110090650101
C           10.79130591013419        3.15344726054547       -1.50526830303024
C           12.08940748535442        2.58665495457220       -1.12594567928895
N           11.90913378116878        1.32050474517283       -0.50965384503603
C           13.29173648104687        3.19236908623277       -1.31929347452764
C           13.33447312704259        4.53973186188121       -1.93732671521848
C           13.88999726867009        4.70978698656605       -3.21332005736057
C           13.95289852870437        5.97793567552684       -3.79165478324106
C           13.46477137740611        7.09977543311573       -3.10230247472900
N           13.52931803587902        8.39260558703472       -3.69162048646546
C           12.91390404474223        6.92762379303056       -1.82211864397906
C           12.85096001562780        5.65928492179456       -1.24404139880444
C           14.57025490125102        2.58070148343745       -0.93544656243033
C           15.84881828014778        3.28636890734525       -0.92798132053880
C           16.79204624398221        2.41743777659774       -0.56045042879222
N           14.71687639087564        1.32508851249408       -0.57913955808781
C           16.07665869523324        1.17993607921499       -0.33755519637718
C           16.54885843207379       -0.01093399268511       -0.00082100430676
C           15.91197844301288       -1.25263268312632        0.23558201893297
C           16.47382469937600       -2.47247500244422        0.21368697367425
C           15.44044195446125       -3.39686027895744        0.59470188133066
C           14.32531105753479       -2.67841449705837        0.83293271124924
N           14.56242212085318       -1.29777626235345        0.60707800051517
C           13.05988823887030       -3.25345476071071        1.32377833544538
C           13.07909735233294       -4.59367691712176        1.96435975871857
C           13.81592161870404       -4.80045011585167        3.14002405708446
C           13.85658114030139       -6.06111843357840        3.73614823623259
C           13.16535932915018       -7.14181961691341        3.16482488781611
N           13.20752227425405       -8.42695796784425        3.77201313293261
C           12.43437169645040       -6.93579615480253        1.98365477459914
C           12.39337165341372       -5.67475004030290        1.38787781241497
C           11.89139104208574       -2.58366599741924        1.20855069191476
C           10.58962429790908       -3.02850128534832        1.69106700639297
C            9.71961684342957       -2.09562899403987        1.31593618664909
C           10.46343072685562       -1.05718518860993        0.61071559185390
N           11.74046007980865       -1.33484937857372        0.54572280189128
H            8.75142012353489        0.13378372196255       -0.01838349963074
H            8.78303788983642        2.44540171036574       -1.27485108883426
H           10.60119474237910        4.09419279287146       -2.00345308365189
H           14.27306155700603        3.85364227467166       -3.75952824031119
H           14.38376622106648        6.09295903538518       -4.77962859086613
H           13.93566477226952        8.52661956947228       -4.63651958100749
H           13.17108980788173        9.22533016576250       -3.18748677190980
H           12.53536371744205        7.78303092630834       -1.27441829986382
H           12.42815582298373        5.54513793969450       -0.25093552023250
H           16.02720410075502        4.32206075016131       -1.16849580191316
H           17.84603967212724        2.64742475369937       -0.46555437515780
H           17.49938774066194       -2.71844435749162       -0.01836821186991
H           15.54065462955060       -4.46671203618532        0.69764447373196
H           14.35704959640708       -3.97722572926296        3.59538153150992
H           14.42862934234500       -6.20294455301409        4.64590683473967
H           13.74651516237969       -8.58585981708022        4.64396122073041
H           12.69988563539263       -9.22945499927568        3.35446038692810
H           11.89879478040944       -7.75982981458379        1.52626671220975
H           11.83161183173669       -5.53720868788288        0.46949746969884
H           10.34568171643761       -3.92534516789522        2.24377369237382
H            8.65845886180067       -2.11531850026638        1.51106846052520
Fe          31.03815479060158        0.02369053029302       -0.01236941975961
C           34.38224245037800       -0.05422475837066        0.09631426586130
C           33.71641539551423       -1.06793624037533        0.68186073252337
C           34.37245924964126       -2.21476201158044        1.29296351437772
C           33.42635575316803       -2.99795118469021        1.79721115193073
C           32.12822209030780       -2.36847609559788        1.53418423977177
N           32.30870889684655       -1.15562417844865        0.81993737206023
C           30.92571470042926       -2.86444776216337        1.93226838823866
C           30.88315032435817       -4.12407507343019        2.71398481604279
C           30.32766301577050       -5.28151642656434        2.15065504723284
C           30.26472794157594       -6.46425070771920        2.88811879032774
C           30.75286632892138       -6.50948920881227        4.20402158314523
N           30.68831067226769       -7.71505245820746        4.95600712874993
C           31.30372880616482       -5.34738390559185        4.76789236346953
C           31.36665114775411       -4.16475901615059        4.03013635964150
C           29.64825992566319       -2.20520826787199        1.63332569525340
C           28.36703298509224       -2.58957517496469        2.22681576391091
C           27.42527265522808       -1.80529720445829        1.70723593000099
N           29.50063714938960       -1.21532439716416        0.78549759186275
C           28.13206788937436       -0.92841920509969        0.79191446247748
C           27.62096153572609        0.00191075267767       -0.00596852607207
C           28.29680776181679        0.88340168192174       -0.90834875418112
C           27.74385698971604        1.54385526832812       -1.94264701282734
C           28.77663323229212        2.37149157747319       -2.50219573681662
C           29.89291623382005        2.17317880324782       -1.77147962702895
N           29.65436214749182        1.22107363338374       -0.74591916221673
C           31.15710172532450        2.89995702735775       -1.97983659633266
C           31.13855212435004        4.17446610496762       -2.74299337504889
C           30.40174242030320        5.26859921263090       -2.26569648285228
C           30.36106199384604        6.46204560793893       -2.98710163059844
C           31.05227181824377        6.58291995332078       -4.20349165649532
N           31.01011266992525        7.79916431750550       -4.93921116441514
C           31.78325854625900        5.48464589853507       -4.68443123173704
C           31.82425019984792        4.29129233402441       -3.96252828002258
C           32.32642274908333        2.43378891494484       -1.48496811683777
C           33.62786875655391        3.08182275813043       -1.58938510627929
C           34.49804520871457        2.25363164493522       -1.01902438114098
C           33.75438720868578        1.09216486814868       -0.54317980540416
N           32.47703676989742        1.19169335475348       -0.81074457660440
H           35.46621230014709       -0.09018084775431        0.10187724146560
H           35.43459316702076       -2.41468866948412        1.33434583141156
H           33.61643692217589       -3.93297148642404        2.30604175723446
H           29.94457737353732       -5.26373656627344        1.13526472848486
H           29.83386284053509       -7.35126862405804        2.43809606913654
H           30.28197068149378       -8.57664651563880        4.54561005279432
H           31.04654453895140       -7.75494041651515        5.92861095744390
H           31.68227252599024       -5.36350147908889        5.78348521319188
H           31.78947778827147       -3.27393450852904        4.48370524067478
H           28.19039022424959       -3.36296516255720        2.95729308226993
H           26.37157155364272       -1.85216816069825        1.95025352260344
H           26.71835885092571        1.48601761001562       -2.27576656404755
H           28.67703622320201        3.04856403200310       -3.33705681237753
H           29.86058472384512        5.19330165638387       -1.32795475018231
H           29.78900086055427        7.29868759605470       -2.60263837888481
H           30.47111788342908        8.61368743905348       -4.58986073576600
H           31.51774653792524        7.89449779059878       -5.83877769164600
H           32.31884037384044        5.55870522180034       -5.62397994666584
H           32.38602104282825        3.44983107077745       -4.35532337646896
H           33.87193456280905        4.03807407158905       -2.03150156341150
H           35.55918194266960        2.42727872762509       -0.92769085357163
C           17.80384091306738        0.00940465518121        0.01579148065811
C           19.05198336069510       -0.00702769244530       -0.00656041499518
C           20.24421200000854       -0.02826491841787       -0.00949158394122
C           21.55337452789447       -0.04061675890398       -0.01146211203018
C           22.81624427256594       -0.03065237916174       -0.01608191978162
C           24.03004413572149       -0.01165747778069       -0.02215703371699
C           25.29531290778211        0.01501117184432       -0.00726505872533
C           26.42665016885639        0.02242426619813        0.00727936410841
128
 energy: -218.902626016426 gnorm: 0.258320683411 xtb: 6.5.1 (b24c23e)
Fe          13.18506386753650       -0.01296534616433        0.00903134846615
C            9.83708550565342        0.09529580592515        0.01687580755582
C           10.50681093803597        1.15453567087253       -0.51183655706652
C            9.84861433692688        2.29155591857345       -1.12713288076621
C           10.80407578938809        3.15151497119643       -1.50353182077799
C           12.09046530037487        2.57916866705643       -1.12332365803137
N           11.89685597311398        1.32621774074738       -0.51920098229055
C           13.30193814900860        3.19530865288099       -1.31802688506133
C           13.33950111131850        4.54468278690564       -1.93678079564533
C           13.89119062354649        4.71956490598834       -3.21046247837422
C           13.95118962652331        5.98236319348315       -3.79000517477741
C           13.46505894935587        7.10801269614544       -3.10610736028266
N           13.52873604495697        8.38159512772967       -3.68659551255043
C           12.91493955854508        6.92887238138595       -1.82686469216889
C           12.85132614550923        5.66357395991961       -1.25273325718737
C           14.55279636366102        2.60732206357831       -0.94649549180184
C           15.82931234964288        3.29981500501991       -0.93858101995704
C           16.77406073119878        2.41583033509320       -0.56090494784297
N           14.70168282451389        1.34247462071634       -0.56750706983497
C           16.05028896646088        1.19308222846117       -0.33938140648603
C           16.53502010907927       -0.02931536388293        0.00253808918584
C           15.88091137047795       -1.25541948884825        0.24401500612368
C           16.46632709574766       -2.49522403256571        0.22351246676389
C           15.45550140046262       -3.40256455249136        0.60028076636781
C           14.31248407593014       -2.67458424576137        0.84181230703476
N           14.53827886732979       -1.31527524403114        0.58692887258980
C           13.07219189204274       -3.24760796300830        1.32185374265203
C           13.08905791009705       -4.59394305931180        1.95855021340929
C           13.81726223542672       -4.80883573259679        3.13568147703386
C           13.85393160483737       -6.06400379948548        3.73426765907080
C           13.16554815023338       -7.14931936579313        3.16849959488304
N           13.20708935953010       -8.41534590877850        3.76650901644263
C           12.43627419297829       -6.93487291941120        1.98778927745914
C           12.39583844540799       -5.67575507040100        1.39603331232424
C           11.89227590165024       -2.57725191221444        1.20671938299781
C           10.59754944131904       -3.02278939866957        1.68570471349902
C            9.71175009463793       -2.08473339580905        1.30795723293565
C           10.44816710868221       -1.04962422031285        0.60687663967819
N           11.74425708737866       -1.33115413782077        0.55793563941254
H            8.75299225571144        0.12677451022283       -0.01270031165464
H            8.78554938015958        2.43308519437613       -1.26848059487284
H           10.61893010425968        4.09354200125370       -2.00156228534541
H           14.27105227113138        3.85944531768599       -3.75630160399321
H           14.38257299961889        6.09461598823378       -4.77895151690561
H           13.92648789884938        8.51647874674446       -4.61261968384528
H           13.17855171539893        9.19998620030199       -3.19515903645486
H           12.53638165829945        7.78339624292563       -1.27616791806043
H           12.43075190800966        5.54629253119673       -0.25709868654154
H           16.01416329832591        4.33227793943163       -1.17463743521651
H           17.83286831522596        2.63109894295507       -0.46218308082383
H           17.49406888044482       -2.72410615236718       -0.01784230422355
H           15.54799683275374       -4.47095161865063        0.69583930414326
H           14.35473435454930       -3.98229970132712        3.59287987365369
H           14.42679982973221       -6.20381296905589        4.64505620676459
H           13.73453781060675       -8.57493585248722        4.62130003260900
H           12.71076914463539       -9.20446966872764        3.36002202069272
H           11.90033324150747       -7.75881088042785        1.52764244134083
H           11.83521645295593       -5.53755688219480        0.47500759092857
H           10.36126127634560       -3.92213200815655        2.23936307849947
H            8.65275696371814       -2.10501019754323        1.50568568777851
Fe          31.03473802258659        0.01395703843850       -0.00568202690951
C           34.38059997445024       -0.03948876518373        0.08923293802603
C           33.71101671444752       -1.06550472541365        0.68003960408186
C           34.36922050665954       -2.20662361436789        1.28776329466316
C           33.41402479810861       -2.99563513370405        1.79660713626727
C           32.12774303462733       -2.36265793474473        1.52987661498627
N           32.32135143527400       -1.16691637852199        0.81961214017185
C           30.91729882550462       -2.86622078327581        1.93646566314572
C           30.87846272238310       -4.12693298106818        2.71871979442234
C           30.32646669057276       -5.28472864662816        2.16043665966824
C           30.26640345447156       -6.46543759957395        2.89274708146941
C           30.75257703800428       -6.51727764570589        4.20882302549681
N           30.68888540465148       -7.70480418460830        4.94962188021270
C           31.30270875706752       -5.35213053622719        4.76643541534666
C           31.36635607323921       -4.17453634208274        4.02914009155119
C           29.66849937807056       -2.23173870302490        1.65139172113712
C           28.38851986187157       -2.60649682935826        2.23235736850220
C           27.44833030673630       -1.80217884770445        1.70239808685394
N           29.52866925098756       -1.21962198160113        0.80700725600960
C           28.18664527587210       -0.94084214383297        0.80678795715113
C           27.70269617927306        0.01530132272812       -0.01894605248630
C           28.35155765571564        0.89218248279669       -0.91184291239061
C           27.75657885785698        1.56271561235791       -1.95367853961355
C           28.76298202961505        2.37951351207233       -2.50402612758715
C           29.90742697257912        2.17983375649558       -1.76483047651396
N           29.68863690860988        1.21759273035964       -0.77154950431171
C           31.14608863829892        2.89579851662331       -1.97654692409407
C           31.12878864053953        4.17011083475328       -2.74657770138963
C           30.40039544159242        5.26971962906818       -2.27512248539554
C           30.36369211852794        6.46213471201427       -2.99055476849789
C           31.05208914072354        6.59017884721647       -4.20774073887048
N           31.01053697958423        7.78815947640196       -4.93257858399502
C           31.78138285653700        5.48764231635483       -4.68144378416851
C           31.82184643611184        4.29874184516421       -3.95899886791818
C           32.32583891239394        2.42905998190749       -1.48093455088973
C           33.62026786874624        3.07435600037351       -1.58758750575891
C           34.50603659042231        2.24110648320221       -1.01441189284143
C           33.76978445707798        1.08485792347096       -0.53906719191161
N           32.47368494037965        1.20001030457697       -0.80117946096004
H           35.46468290237442       -0.08155693116954        0.09916983850654
H           35.43224005803080       -2.40258345985817        1.32758688915967
H           33.59894063769198       -3.93117544628152        2.30659723406945
H           29.94661471935911       -5.26427005253001        1.14191591616277
H           29.83502874681951       -7.35169131225017        2.43985678458367
H           30.29114275877760       -8.55114351289500        4.55036822561839
H           31.03908406145681       -7.74734469002376        5.90326236282043
H           31.68126921288476       -5.36521641898796        5.78290708185714
H           31.78690024173114       -3.27975531509227        4.48131163106921
H           28.20284714372114       -3.37361189197037        2.96243287840268
H           26.38732329914129       -1.83718121907894        1.93507620786372
H           26.72639235028746        1.48728657619792       -2.27644731204380
H           28.66910817880519        3.04937591625826       -3.34154251054245
H           29.86292057945433        5.19402576788718       -1.33358561325403
H           29.79081465270589        7.29848926248348       -2.60383288239881
H           30.48309091883752        8.58877450288977       -4.59327761820232
H           31.50686596544674        7.88533213353748       -5.81488803501023
H           32.31731695195015        5.55931918439481       -5.62241362502005
H           32.38243433396247        3.45464082301194       -4.35260578475869
H           33.85652218991886        4.03270610515361       -2.03126447041025
H           35.56497523583398        2.41714993563664       -0.92207758757556
C           17.81361855560509       -0.01196215021740        0.02506568155959
C           19.01932982213781       -0.01184824221067       -0.00296528096751
C           20.28500017295557       -0.02969934284772       -0.01127418554048
C           21.50052317555751       -0.04080943390574       -0.01252018561098
C           22.76842194552051       -0.03250208851856       -0.01589845599029