160
 energy: -295.939627467494 gnorm: 1.356746646066 xtb: 6.5.1 (b24c23e)
Ni          18.96910900000000        0.02791500000000        0.02943100000000
C           15.59545200000000       -0.08171700000000       -0.08062100000000
C           16.26835800000000       -0.89650000000000       -0.89907300000000
C           15.63965700000000       -1.82692400000000       -1.83360000000000
C           16.60048000000000       -2.46822900000000       -2.47778300000000
C           17.88360100000000       -1.97452000000000       -1.98192800000000
N           17.68941600000000       -0.97895900000000       -0.98195000000000
C           19.07184000000000       -2.40539200000000       -2.41468900000000
C           20.37152400000000       -1.91397400000000       -1.92104200000000
C           21.65120700000000       -2.41216700000000       -2.42116600000000
C           22.60695700000000       -1.77092800000000       -1.77705500000000
N           20.52514300000000       -1.00503600000000       -1.00822300000000
C           21.93643100000000       -0.85518800000000       -0.85753300000000
C           22.54516100000000       -0.00877600000000       -0.00743200000000
C           21.79734700000000        0.89715500000000        0.90230600000000
C           22.36875200000000        1.74414000000000        1.75290500000000
C           21.30666100000000        2.44149900000000        2.45330300000000
C           20.16030300000000        1.97537700000000        1.98521200000000
N           20.37277700000000        0.97875900000000        0.98428800000000
C           18.84500800000000        2.44578300000000        2.45779300000000
C           17.67813500000000        1.98836200000000        1.99846200000000
C           16.37031900000000        2.43766600000000        2.44994500000000
C           15.48929100000000        1.74303000000000        1.75233100000000
C           16.23620000000000        0.85424000000000        0.85946000000000
N           17.51754900000000        0.99102000000000        0.99668000000000
H           14.51234100000000       -0.10424100000000       -0.10317300000000
H           14.57823900000000       -1.97663600000000       -1.98392700000000
H           16.44681500000000       -3.22420200000000       -3.23708600000000
H           19.09153800000000       -3.16987700000000       -3.18253000000000
H           21.80208700000000       -3.16829800000000       -3.18046100000000
H           23.66863000000000       -1.91771300000000       -1.92425400000000
H           23.42838300000000        1.89639100000000        1.90580000000000
H           21.42646900000000        3.20060700000000        3.21571800000000
H           18.82837800000000        3.21067200000000        3.22608300000000
H           16.14658000000000        3.18474500000000        3.20041300000000
H           14.41363400000000        1.82598600000000        1.83582800000000
Ni          69.96256300000000       -0.06072300000000       -0.00484600000000
C           73.33622000000000        0.09442900000000       -0.01250400000000
C           72.66331400000000        1.24788100000000       -0.06981800000000
C           73.29201500000001        2.56498100000000       -0.13520400000000
C           72.33119200000000        3.47284100000000       -0.18030900000000
C           71.04807000000000        2.77397100000000       -0.14563700000000
N           71.24225600000000        1.36464500000000       -0.07565400000000
C           69.85983200000000        3.38390300000000       -0.17590800000000
C           68.56014700000000        2.68821400000000       -0.14132800000000
C           67.28046500000001        3.39327300000000       -0.17614200000000
C           66.32471500000000        2.48551100000000       -0.13104600000000
N           68.40652900000001        1.40161400000000       -0.07754600000000
C           66.99524099999999        1.18936900000000       -0.06688100000000
C           66.38651100000000       -0.00877600000000       -0.00743200000000
C           67.13432500000000       -1.29107800000000        0.05609300000000
C           66.56292000000001       -2.48998100000000        0.11552600000000
C           67.62501100000000       -3.47713300000000        0.16450600000000
C           68.77136900000001       -2.81735300000000        0.13181300000000
N           68.55889500000001       -1.40660800000000        0.06184200000000
C           70.08666299999999       -3.48332400000000        0.16494600000000
C           71.25353699999999       -2.83587400000000        0.13287900000000
C           72.56135300000000       -3.47203800000000        0.16460100000000
C           73.44238000000000       -2.48877500000000        0.11584700000000
C           72.69547199999998       -1.23050200000000        0.05326800000000
N           71.41412300000000       -1.42401600000000        0.06276000000000
H           74.41933100000000        0.12626600000000       -0.01403300000000
H           74.35343200000000        2.77688200000000       -0.14569200000000
H           72.48485700000001        4.54298800000000       -0.23343200000000
H           69.84013400000001        4.46609100000000       -0.22962100000000
H           67.12958500000001        4.46353200000000       -0.22915300000000
H           65.26304200000000        2.69314100000000       -0.14118900000000
H           65.50328900000000       -2.70548900000000        0.12620500000000
H           67.50520299999999       -4.55169300000000        0.21782200000000
H           70.10329400000001       -4.56611300000000        0.21871800000000
H           72.78509199999999       -4.52966100000000        0.21717200000000
H           74.51803799999999       -2.60632400000000        0.12180800000000
C           29.31198699999999       -0.00876900000000        0.00136000000000
C           28.10304800000000       -0.02222400000000       -0.00708700000000
C           26.68151900000000       -0.01340500000000       -0.01907000000000
C           25.46984900000000       -0.00596600000000       -0.00820800000000
C           30.72859100000000       -0.01544400000000        0.00189300000000
C           31.94928700000000       -0.00596600000000       -0.00820800000000
C           45.06928000000000       -0.00876900000000        0.00136000000000
C           43.86034100000000       -0.02222400000000       -0.00708700000000
C           42.43881200000000       -0.01340500000000       -0.01907000000000
C           41.22714200000000       -0.00596600000000       -0.00820800000000
C           46.48588400000000       -0.01544400000000        0.00189300000000
C           47.70658000000000       -0.00596600000000       -0.00820800000000
C           60.82657300000000       -0.00876900000000        0.00136000000000
C           59.61763400000000       -0.02222400000000       -0.00708700000000
C           58.19610500000000       -0.01340500000000       -0.01907000000000
C           56.98443500000000       -0.00596600000000       -0.00820800000000
C           62.24317700000000       -0.01544400000000        0.00189300000000
C           63.46387299999999       -0.00596600000000       -0.00820800000000
Ni          36.54470700000000       -0.04366100000000       -0.03845800000000
C           33.11125500000000        0.01056100000000        0.00975500000000
C           33.77778900000000        0.88399400000000        0.78698600000000
C           33.15347600000000        1.87598500000000        1.66967500000000
C           34.11184800000000        2.55455200000000        2.27355200000000
C           35.39305700000000        2.03432300000000        1.81068500000000
N           35.20096599999999        0.97874500000000        0.87137100000000
C           36.57544100000000        2.49937500000000        2.22456100000000
C           37.88511700000000        1.99618800000000        1.77682800000000
C           39.15176000000000        2.54111500000000        2.26183600000000
C           40.12394000000000        1.87568300000000        1.66967000000000
N           38.06109400000000        1.03674600000000        0.92297300000000
C           39.47630899999999        0.89802500000000        0.79957200000000
C           40.10535800000000        0.01056100000000        0.00975500000000
C           39.37543400000000       -0.95497500000000       -0.84955000000000
C           39.96217800000000       -1.84577400000000       -1.64242400000000
C           38.91210700000000       -2.59309900000000       -2.30743000000000
C           37.75792599999999       -2.10970800000000       -1.87709700000000
N           37.95223800000000       -1.05357800000000       -0.93716500000000
C           36.45284899999999       -2.61969300000000       -2.33077000000000
C           35.27366500000000       -2.15202200000000       -1.91452000000000
C           33.98655400000000       -2.65396900000000       -2.36104900000000
C           33.07998500000000       -1.93833400000000       -1.72425500000000
C           33.78767400000000       -0.97592700000000       -0.86799600000000
N           35.07518000000000       -1.09801000000000       -0.97670200000000
H           32.09610600000000        2.04670900000000        1.82154000000000
H           33.95658400000000        3.35488400000000        2.98572600000000
H           36.58185100000000        3.30904000000000        2.94505600000000
H           39.28290500000000        3.34353500000000        2.97595600000000
H           41.18174400000000        2.04507400000000        1.82045800000000
H           41.02448200000000       -1.99687500000000       -1.77700000000000
H           39.04469700000000       -3.39567900000000       -3.02170400000000
H           36.45437800000000       -3.42980800000000       -3.05163200000000
H           33.79205300000000       -3.44943800000000       -3.06881800000000
H           32.01062300000000       -2.05930800000000       -1.83182700000000
Ni          52.30200000000000       -0.04366100000000       -0.03845800000000
C           48.86854800000000        0.01056100000000        0.00975500000000
C           49.53508200000000        0.88399400000000        0.78698600000000
C           48.91076899999999        1.87598500000000        1.66967500000000
C           49.86913999999999        2.55455200000000        2.27355200000000
C           51.15035000000000        2.03432300000000        1.81068500000000
N           50.95825900000000        0.97874500000000        0.87137100000000
C           52.33273399999999        2.49937500000000        2.22456100000000
C           53.64240999999999        1.99618800000000        1.77682800000000
C           54.90905300000000        2.54111500000000        2.26183600000000
C           55.88123300000000        1.87568300000000        1.66967000000000
N           53.81838700000000        1.03674600000000        0.92297300000000
C           55.23360200000000        0.89802500000000        0.79957200000000
C           55.86265099999999        0.01056100000000        0.00975500000000
C           55.13272700000000       -0.95497500000000       -0.84955000000000
C           55.71947099999999       -1.84577400000000       -1.64242400000000
C           54.66940000000000       -2.59309900000000       -2.30743000000000
C           53.51521900000000       -2.10970800000000       -1.87709700000000
N           53.70953100000000       -1.05357800000000       -0.93716500000000
C           52.21014200000000       -2.61969300000000       -2.33077000000000
C           51.03095800000000       -2.15202200000000       -1.91452000000000
C           49.74384700000000       -2.65396900000000       -2.36104900000000
C           48.83727800000000       -1.93833400000000       -1.72425500000000
C           49.54496700000000       -0.97592700000000       -0.86799600000000
N           50.83247300000000       -1.09801000000000       -0.97670200000000
H           47.85339900000000        2.04670900000000        1.82154000000000
H           49.71387699999999        3.35488400000000        2.98572600000000
H           52.33914400000000        3.30904000000000        2.94505600000000
H           55.04019800000000        3.34353500000000        2.97595600000000
H           56.93903700000000        2.04507400000000        1.82045800000000
H           56.78177500000000       -1.99687500000000       -1.77700000000000
H           54.80199000000000       -3.39567900000000       -3.02170400000000
H           52.21167100000000       -3.42980800000000       -3.05163200000000
H           49.54934600000000       -3.44943800000000       -3.06881800000000
H           47.76791600000000       -2.05930800000000       -1.83182700000000
160
 energy: -296.353572139421 gnorm: 0.480422741397 xtb: 6.5.1 (b24c23e)
Ni          18.97700170897467        0.02337413449641        0.02486569283740
C           15.59602111269405       -0.07135740037995       -0.07021546116795
C           16.27529308006973       -0.89694280645879       -0.89951788026343
C           15.63895723739334       -1.82261759653306       -1.82927452138865
C           16.60674736423640       -2.46842182541870       -2.47797697562017
C           17.88267769966862       -1.96903837345268       -1.97642157713222
N           17.67832764000516       -0.98523388816028       -0.98824847215553
C           19.08636472111984       -2.40382984304734       -2.41311935063843
C           20.36391398138138       -1.92329854992453       -1.93040361775832
C           21.64132710118867       -2.41668335854631       -2.42570218517174
C           22.60706301545369       -1.76569703319854       -1.77180577747901
N           20.52781206886663       -1.00059735368564       -1.00375158729681
C           21.94141089540432       -0.85243613880019       -0.85478118522102
C           22.52927015079683        0.00112036956757        0.00242806921231
C           21.79140456581175        0.88658223597439        0.89168083122919
C           22.36971300405493        1.75712053366233        1.76593998925768
C           21.32713049013908        2.44230805396836        2.45411587837871
C           20.14779984903653        1.96711792971052        1.97692161072221
N           20.37188771612522        0.98022787604689        0.98577497148198
C           18.85873404941330        2.44015487527214        2.45213896571634
C           17.67827055429265        1.98607911326580        1.99616922670211
C           16.37606231943678        2.43644516659881        2.44871838818950
C           15.48246454368639        1.73553993854830        1.74480772338033
C           16.22132905837469        0.84759316070914        0.85278486831800
N           17.52326681815012        0.99358427092200        0.99925468208727
H           14.51280271203168       -0.10164145402777       -0.10056174500352
H           14.57832358174615       -1.97272232533854       -1.97999629802233
H           16.45250566549275       -3.22391224201455       -3.23679567980427
H           19.09546202573503       -3.16913048493835       -3.18178153758536
H           21.79729473249344       -3.16971870268275       -3.18188860024827
H           23.66817948903719       -1.91275011997173       -1.91927351849326
H           23.42882625110426        1.89820444203577        1.90761913044629
H           21.43091590538753        3.20037674601544        3.21548567937065
H           18.83424063798731        3.20803834806758        3.22343573430681
H           16.15217498378150        3.18370217572520        3.19936431346349
H           14.41145961565744        1.82248972067402        1.83231572595454
Ni          69.95466178715826       -0.05429273414096       -0.00516939075704
C           73.33565129975888        0.07976530030493       -0.01177551691090
C           72.65638179779097        1.24850689272728       -0.06984978806893
C           73.29271435502611        2.55888409589005       -0.13490113092491
C           72.32492366481561        3.47311345034433       -0.18032293440560
C           71.04899335025763        2.76621003994673       -0.14525203136744
N           71.25334420648450        1.37352451531213       -0.07608984161095
C           69.84530599979725        3.38169203757370       -0.17579694560006
C           68.56775862832687        2.70141927019387       -0.14198423072931
C           67.29034336368791        3.39966753177617       -0.17645970829724
C           66.32460801550272        2.47811103986964       -0.13067822312079
N           68.40388573985624        1.39533059320718       -0.07723020684308
C           66.99029176731089        1.18549705832593       -0.06669084429536
C           66.40265262080673       -0.02272965330212       -0.00674501318189
C           67.14028741941236       -1.27612538490486        0.05535096925556
C           66.56195782849439       -2.50835994329965        0.11643807915077
C           67.60453955120596       -3.47827901433187        0.16456303961942
C           68.78387083717021       -2.80567101702010        0.13123552260002
N           68.55980975434544       -1.40869545257787        0.06195218953772
C           70.07293581625817       -3.47535577493480        0.16454944495330
C           71.25340015092712       -2.83264334557529        0.13271836080073
C           72.55560798013494       -3.47030903370720        0.16451483458305
C           73.44920597277870       -2.47817093386188        0.11532062438696
C           72.71034367626669       -1.22109393585114        0.05280126395674
N           71.40840571517174       -1.42764406463552        0.06294075657407
H           74.41886928296304        0.12258616615998       -0.01385032674618
H           74.35334731827179        2.77134191330059       -0.14541718265529
H           72.47916577246346        4.54257770424462       -0.23341235942737
H           69.83620889808068        4.46503476129639       -0.22956892309461
H           67.13437574211400        4.46554246716321       -0.22925419692979
H           65.26349093952052        2.68611641161106       -0.14084246047948
H           65.50284903683998       -2.70805865751522        0.12633110968441
H           67.50075505898540       -4.55136367485258        0.21780459596698
H           70.09743004624157       -4.56238221240948        0.21853182391904
H           72.77949632404368       -4.52818299734131        0.21709764057835
H           74.52021159484360       -2.60137379521377        0.12156171806526
C           29.31144917705888       -0.00925442261548        0.00107551896856
C           28.08705083713688       -0.02198757794140       -0.00742920367599
C           26.68529352295290       -0.01338220954757       -0.01858945767506
C           25.46349623001657       -0.00606684774597       -0.00819449978956
C           30.67826578453054       -0.01549951377208        0.00237544687187
C           31.87943722543173       -0.00978724006583       -0.01247215625752
C           45.07755144292162       -0.00911222427704        0.00099516362415
C           43.85582059711835       -0.02229859559690       -0.00709975445563
C           42.50076834840847       -0.01506962565582       -0.02086591782174
C           41.30538326512713       -0.01390481443602       -0.01510750356537
C           46.43640534228663       -0.01545184518799        0.00247398755618
C           47.63824208423328       -0.00977951260071       -0.01246286108662
C           60.84433001739229       -0.00897599911972        0.00123363575320
C           59.62048565875947       -0.02214043217592       -0.00712416066923
C           58.25858094241976       -0.01516380883957       -0.02088085487659
C           57.06402702045553       -0.01391898034173       -0.01513211253337
C           62.24263438174998       -0.01514310138220        0.00184254194035
C           63.46665579046716       -0.00624273756963       -0.00804081793817
Ni          36.54814369719171       -0.04194196826619       -0.03692608499156
C           33.16655683228355        0.00071905171597        0.00120093891382
C           33.80743473123467        0.89403255583574        0.79593901084414
C           33.15413804125645        1.86918888785101        1.66360561136076
C           34.11954989278642        2.55565753998708        2.27453902679702
C           35.39236622610721        2.03102807326864        1.80775704255519
N           35.19743377501403        0.98893011860893        0.88046854792270
C           36.59030180458271        2.49963738981155        2.22478619618350
C           37.87426545793631        2.01075846411515        1.78979299466657
C           39.13923055612906        2.54763679486590        2.26764318575242
C           40.11972669375334        1.86899054997007        1.66371448508722
N           38.05646122846760        1.03610192030313        0.92245155874472
C           39.44402090226129        0.90926307817228        0.80964014672317
C           40.02744157660567        0.00226280447380        0.00236428608328
C           39.34360553929103       -0.95314126264575       -0.84787348792730
C           39.96002420969823       -1.85904738291415       -1.65422829542853
C           38.93102758938727       -2.59489313457715       -2.30902845138569
C           37.74335544500680       -2.10309684352534       -1.87120972258179
N           37.94563900678870       -1.05835467557182       -0.94140105272259
C           36.46639144483378       -2.61479171142419       -2.32641282105247
C           35.27490997906833       -2.15148454957176       -1.91404010141399
C           33.99271402779900       -2.65316165579233       -2.36033009475869
C           33.07395701912431       -1.92938147958543       -1.71630016394861
C           33.79089040296292       -0.97660411990104       -0.86859333028611
N           35.08772817827006       -1.10419903010576       -0.98218467972315
H           32.09621838020175        2.04054021134188        1.81605051111492
H           33.96203488871105        3.35472063128821        2.98558254806818
H           36.58535437719591        3.30905277272222        2.94506475874273
H           39.27826843851454        3.34555560133734        2.97775488533824
H           41.17974810093163        2.03871919084849        1.81480403745181
H           41.02380905267125       -1.99789150155164       -1.77790183435734
H           39.04925053887150       -3.39574105787972       -3.02176044304700
H           36.45984124806813       -3.42747173264416       -3.04955531445962
H           33.79729197818952       -3.44829135157759       -3.06779680022031
H           32.00840475562850       -2.05418687418840       -1.82727000101276
Ni          52.30546182118857       -0.04203659785886       -0.03700734344921
C           48.92403146354079        0.00043495667366        0.00095298099116
C           49.56555053557877        0.89422706177486        0.79610411912208
C           48.91150077028914        1.86947003642953        1.66385457082452
C           49.87663281040721        2.55579885339011        2.27466453676276
C           51.15008797252392        2.03148161957499        1.80816447128037
N           50.95395594878050        0.98860246708568        0.88017469959179
C           52.34652612542123        2.49965482893258        2.22480117705155
C           53.63217681500286        2.01035282559454        1.78943410690692
C           54.89648436630442        2.54753587987275        2.26755248298314
C           55.87704728779450        1.86884039245313        1.66357866837306
N           53.81349184926940        1.03637916386007        0.92269898009851
C           55.20174573203107        0.90900151345963        0.80940795502171
C           55.78478471497080        0.00243580304160        0.00250262015611
C           55.10084799126260       -0.95291994926037       -0.84767316182154
C           55.71725439106697       -1.85901691636942       -1.65420107569658
C           54.68834820019151       -2.59488108436601       -2.30901820310344
C           53.50077003694118       -2.10306700119542       -1.87118239440457
N           53.70292567759159       -1.05835929231694       -0.94140550493613
C           52.22350471765246       -2.61478304055653       -2.32640513728825
C           51.03228539467692       -2.15156847586610       -1.91411181985185
C           49.74996254626016       -2.65319129291049       -2.36035637923967
C           48.83121519387814       -1.92948703587621       -1.71639488229004
C           49.54821546393602       -0.97668990328555       -0.86868077978201
N           50.84484868657405       -1.10412458755328       -0.98211851230753
H           47.85348591848793        2.04056925764303        1.81607662905407
H           49.71923129706664        3.35479041793391        2.98564500684306
H           52.34248865912762        3.30906873762537        2.94507823903481
H           55.03550082914917        3.34550934528583        2.97771481171078
H           56.93701262454650        2.03871208458756        1.81479966429968
H           56.78104998373202       -1.99787868496940       -1.77788986190677
H           54.80653899614204       -3.39572981305169       -3.02175031800870
H           52.21709898987598       -3.42746904737852       -3.04955381731360
H           49.55456321127442       -3.44830718657389       -3.06781080541603
H           47.76565963282839       -2.05421737020668       -1.82729703948322
160
 energy: -296.485398409956 gnorm: 0.219158561062 xtb: 6.5.1 (b24c23e)
Ni          18.99227150199139        0.01473745552551        0.01615133602058
C           15.59863561022831       -0.05870848343654       -0.05751056555617
C           16.28293388670395       -0.89537406222759       -0.89794048727880
C           15.64221109805144       -1.81496382178655       -1.82158696607069
C           16.61797732304161       -2.46551285901983       -2.47505614180813
C           17.88471690257576       -1.96229364654605       -1.96964426467334
N           17.66478790651705       -0.99306813258107       -0.99610896094852
C           19.10494087894757       -2.39934011216445       -2.40860560777060
C           20.35627168678711       -1.93273414854905       -1.93986373017312
C           21.62898401612714       -2.41917539250080       -2.42820369790002
C           22.60021678896188       -1.75807731465744       -1.76416996145351
N           20.53030325739618       -0.99588251095866       -0.99897793930356
C           21.94143461909192       -0.84866301742001       -0.85103812502924
C           22.49790201542335        0.01981814793307        0.02099535404275
C           21.78296787247031        0.87990407102663        0.88492803421588
C           22.36820814563855        1.77251451355617        1.78138827793036
C           21.35241367674322        2.43969810274676        2.45150090989598
C           20.14170443249210        1.95633291376451        1.96610725329208
N           20.37130308032866        0.98228659857825        0.98786937800764
C           18.88239624838773        2.42695946640771        2.43888636541606
C           17.68171431428875        1.97754066853406        1.98759631051235
C           16.38519090509216        2.42804613033358        2.44028225348392
C           15.47717423649087        1.72424806325556        1.73346461309260
C           16.20579022695348        0.83926085252231        0.84441917880412
N           17.52962128398437        0.99384755179094        0.99953078500642
H           14.51510540571535       -0.09552015796117       -0.09441300726624
H           14.58088510567176       -1.96200348037334       -1.96923133304625
H           16.46832550442301       -3.22139448317785       -3.23426941274216
H           19.10508281820881       -3.16554328556079       -3.17818201676008
H           21.78617337526609       -3.17169719238765       -3.18387686661185
H           23.66334679796385       -1.89959516233194       -1.90607877535141
H           23.42984017247710        1.90158172082048        1.91100107421710
H           21.44114725679604        3.19843495313279        3.21353443017363
H           18.85314668799911        3.19693434149129        3.21227579187251
H           16.16754171692520        3.17708912954644        3.19271853579139
H           14.40725710381006        1.81353983818659        1.82332382769966
Ni          69.93938593865339       -0.04204025410928       -0.00580808596538
C           73.33303749795225        0.06185922741442       -0.01088512665912
C           72.64874309844470        1.24628433055989       -0.06973770101715
C           73.28946050776050        2.54804828940969       -0.13436202806058
C           72.31369319151642        3.46899489566260       -0.18011839136445
C           71.04695554838760        2.75666004012381       -0.14477581152720
N           71.26688423942201        1.38461017529484       -0.07662991469573
C           69.82673271164352        3.37534063328249       -0.17547814513460
C           68.57540964007875        2.71478428952223       -0.14264555747759
C           67.30268868697456        3.40320120093196       -0.17663580992124
C           66.33145895842607        2.46734439848222       -0.13014181322987
N           68.40142992483780        1.38864725140754       -0.07688457973265
C           66.99029603624605        1.18021377815149       -0.06642554912127
C           66.43420362623374       -0.04907576805084       -0.00543276820863
C           67.14875599190978       -1.26666683129155        0.05488445786079
C           66.56347224740438       -2.53015861171878        0.11752044862073
C           67.57925879917967       -3.47459568275180        0.16438196463710
C           68.78997588092152       -2.79043213562947        0.13048636360958
N           68.56043566288388       -1.41164381528671        0.06211288468747
C           70.04927618324000       -3.45668291502800        0.16362161916666
C           71.24995644469719       -2.82055938269244        0.13212082622223
C           72.54647817962741       -3.45841859855632        0.16392552984491
C           73.45449553084535       -2.46218437736496        0.11452688152513
C           72.72588284414658       -1.20930109793740        0.05221879166541
N           71.40205108254479       -1.42802453466628        0.06297041687765