219
 energy: -355.755328581501 gnorm: 1.513522198740 xtb: 6.5.1 (b24c23e)
Cu          24.94470100000000       -0.01754900000000       -0.01853200000000
C           21.58601200000000        0.18571200000000       -0.25384200000000
C           22.25033200000000        1.28654800000000        0.10763300000000
C           21.60068200000000        2.53003700000000        0.50507900000000
C           22.54339700000000        3.40587600000000        0.79523100000000
C           23.84911800000000        2.76510900000000        0.58791900000000
N           23.66995300000000        1.41655300000000        0.15484700000000
C           25.04429100000000        3.36061700000000        0.77419300000000
C           26.33960799999999        2.66915600000000        0.54637100000000
C           27.63637800000000        3.35579800000000        0.54726800000000
C           28.56956100000000        2.45283000000000        0.33020100000000
N           26.47247800000000        1.39490700000000        0.33442600000000
C           27.87593500000000        1.17782700000000        0.18690900000000
C           28.46752400000000       -0.01228400000000       -0.01207900000000
C           27.70895500000000       -1.27875900000000       -0.15318800000000
C           28.26614400000000       -2.48328400000000       -0.13687300000000
C           27.21890800000000       -3.44886700000000       -0.39684800000000
C           26.08474000000000       -2.77453500000000       -0.55165100000000
C           24.78278700000000       -3.39908500000000       -0.91028400000000
C           24.75772000000000       -4.84087900000000       -1.24484900000000
C           24.69124400000000       -5.25393100000000       -2.58310900000000
C           24.68660200000000       -6.61984000000000       -2.90261300000000
C           24.58082000000000       -7.05971100000000       -4.33294000000000
C           24.71440800000000       -7.57187800000000       -1.87165900000000
C           24.77147100000000       -7.16678600000000       -0.52981800000000
C           24.83821600000000       -8.19737300000000        0.55871300000000
C           24.80300900000000       -5.79839000000000       -0.22134700000000
C           23.62964200000000       -2.70468500000000       -0.92414200000000
C           22.30897200000000       -3.24512600000000       -1.24266400000000
C           21.45371799999999       -2.26062200000000       -1.05322700000000
C           22.21740100000000       -1.09268300000000       -0.61762100000000
N           23.48761900000000       -1.33967500000000       -0.53845400000000
N           26.30495900000000       -1.36932100000000       -0.40466800000000
C           25.09382300000000        4.77088200000000        1.21889300000000
C           24.77834000000000        5.80637300000000        0.32711300000000
C           24.82132500000000        7.14264900000000        0.75040000000000
C           24.50118100000000        8.25166400000000       -0.20814100000000
C           25.22196200000000        7.44075900000000        2.06142800000000
C           25.56299000000000        6.41220200000000        2.95247400000000
C           25.94532100000000        6.73297300000000        4.36713500000000
C           25.48187400000000        5.07731600000000        2.53045600000000
H           20.50306100000000        0.22269100000000       -0.27212100000000
H           20.53606800000000        2.71659000000000        0.56445500000000
H           22.35746400000000        4.41856200000000        1.12786100000000
H           27.81630200000000        4.41270700000000        0.69373100000000
H           29.63179900000000        2.65034400000000        0.27545900000000
H           29.31178300000000       -2.71474700000000        0.01331100000000
H           27.35447000000000       -4.51855300000000       -0.48329200000000
H           24.64715900000000       -4.51252300000000       -3.37291500000000
H           25.08331900000000       -8.03947300000000       -4.48049700000000
H           23.51049900000000       -7.15616600000000       -4.61046500000000
H           25.06534400000000       -6.32105600000000       -5.00707100000000
H           24.69327200000000       -8.62834200000000       -2.11315400000000
H           24.66965300000000       -7.74215300000000        1.55902900000000
H           24.05944700000000       -8.97230900000000        0.39523600000000
H           25.83739500000000       -8.68141200000000        0.54953700000000
H           24.85977600000000       -5.47467400000000        0.81207400000000
H           22.05512200000000       -4.24848100000000       -1.55776200000000
H           20.38211799999999       -2.32213400000000       -1.19039500000000
H           24.49431400000000        5.57086900000000       -0.69192100000000
H           24.01227800000000        9.09551800000000        0.32389100000000
H           23.80999000000000        7.89977600000000       -1.00308500000000
H           25.43846200000000        8.61533000000000       -0.67807700000000
H           25.26777800000000        8.47357500000000        2.38750600000000
H           25.03586000000000        6.74020300000000        5.00214700000000
H           26.43544899999999        7.72786000000000        4.42568500000000
H           26.65664400000000        5.97576600000000        4.76194700000000
H           25.72393700000000        4.27637200000000        3.21936900000000
Cu          63.87435000000000       -0.00462100000000       -0.00881900000000
C           67.23303900000001        0.16480900000000       -0.26954800000000
C           66.56871900000000       -0.48881200000000       -1.22625300000000
C           67.21836900000000       -1.21669000000000       -2.30996000000000
C           66.27565400000000       -1.73917600000000       -3.07041500000000
C           64.96993300000000       -1.36169200000000       -2.51268100000000
N           65.14909800000000       -0.57034800000000       -1.33797600000000
C           63.77476000000000       -1.70637100000000       -3.03280000000000
C           62.47944400000000       -1.29507600000000       -2.43208600000000
C           61.18267300000000       -1.48707400000000       -3.09133900000000
C           60.24949000000000       -1.02723300000000       -2.28448400000000
N           62.34657299999999       -0.73680400000000       -1.26719800000000
C           60.94311600000000       -0.53469000000000       -1.09976100000000
C           60.35152699999999       -0.01228400000000       -0.01207900000000
C           61.11009599999999        0.47578700000000        1.16506000000000
C           60.55290700000000        0.79541200000000        2.32651800000000
C           61.60014300000000        1.31389500000000        3.18157000000000
C           62.73431200000000        1.27487000000000        2.49080000000000
C           64.03626500000000        1.79318000000000        2.99083400000000
C           64.06133100000000        2.51586500000000        4.28251200000000
C           64.12780700000000        3.91620900000000        4.30671600000000
C           64.13244899999999        4.60330500000000        5.52970100000000
C           64.23823100000000        6.09954200000000        5.55403600000000
C           64.10464300000000        3.87810900000000        6.73109000000000
C           64.04758000000000        2.47654100000000        6.71552800000000
C           63.98083500000000        1.71791100000000        8.00838900000000
C           64.01604200000000        1.79935100000000        5.48708300000000
C           65.18940900000000        1.61319500000000        2.32002300000000
C           66.51007900000000        2.06956700000000        2.75043800000000
C           67.36533300000001        1.61356700000000        1.85757800000000
C           66.60165000000001        0.87006700000000        0.85705700000000
N           65.33143200000001        0.86278200000000        1.11632400000000
N           62.51409199999999        0.74253700000000        1.18204000000000
C           63.72522800000000       -2.52606000000000       -4.26353800000000
C           64.04071100000000       -1.95777000000000       -5.50634000000000
C           63.99772600000000       -2.73629700000000       -6.67197300000000
C           64.31787000000000       -2.12435000000000       -8.00397900000000
C           63.59708900000000       -4.07849000000000       -6.59336000000000
C           63.25606100000000       -4.64800600000000       -5.35742100000000
C           62.87373000000000       -6.09604500000000       -5.27172400000000
C           63.33717700000000       -3.87108500000000       -4.19276900000000
H           68.31598999999999        0.17207100000000       -0.31015300000000
H           68.28298300000000       -1.32565000000000       -2.47261100000000
H           66.46158699999999       -2.34055300000000       -3.95048200000000
H           61.00274900000000       -1.92195300000000       -4.06570500000000
H           59.18725199999999       -1.02963600000000       -2.48942900000000
H           59.50726800000000        0.71559500000000        2.59063900000000
H           61.46458100000000        1.69468400000000        4.18491500000000
H           64.17189200000000        4.46841800000000        3.37475900000000
H           63.73573200000000        6.51399700000000        6.45400000000000
H           65.30855200000001        6.39294800000000        5.56942600000000
H           63.75370700000000        6.54141500000000        4.65692200000000
H           64.12577899999999        4.40414000000000        7.67857500000000
H           64.14939800000001        0.63041500000000        7.84961200000000
H           64.75960499999999        2.09064000000000        8.70719000000000
H           62.98165599999999        1.86146300000000        8.47074300000000
H           63.95927500000000        0.71666500000000        5.46382800000000
H           66.76393000000000        2.65150800000000        3.62642400000000
H           68.43693300000000        1.76243700000000        1.87847600000000
H           64.32473700000000       -0.91345700000000       -5.56380600000000
H           64.80677300000001       -2.87025200000000       -8.66638200000000
H           65.00906200000000       -1.26287300000000       -7.88728200000000
H           63.38058899999999       -1.77421900000000       -8.48408400000000
H           63.55127299999999       -4.67917800000000       -7.49458600000000
H           63.78319100000000       -6.70797200000000       -5.10190500000000
H           62.38360200000000       -6.42922000000000       -6.21099100000000
H           62.16240700000000       -6.26447400000000       -4.43454400000000
H           63.09511400000000       -4.30981600000000       -3.23171300000000
C           30.88421300000000        0.00194100000000       -0.00212800000000
C           32.34244000000000       -0.01989500000000       -0.02000100000000
C           33.47636800000000       -0.04064900000000       -0.02149200000000
C           34.83775000000000       -0.05323900000000       -0.02368300000000
C           36.11196800000000       -0.04293200000000       -0.02844900000000
C           37.30043100000000       -0.02413400000000       -0.03460500000000
C           38.65279200000000        0.00065000000000       -0.01873700000000
C           39.75305900000000        0.00194100000000       -0.00212800000000
C           48.94587799999999        0.00194100000000       -0.00212800000000
C           50.40410400000000       -0.01989500000000       -0.02000100000000
C           51.53803199999999       -0.04064900000000       -0.02149200000000
C           52.89941399999999       -0.05323900000000       -0.02368300000000
C           54.17363300000000       -0.04293200000000       -0.02844900000000
C           55.36209499999999       -0.02413400000000       -0.03460500000000
C           56.71445600000000        0.00065000000000       -0.01873700000000
C           57.81472300000000        0.00194100000000       -0.00212800000000
Cu          44.30716100000000       -0.06943500000000       -0.03016200000000
C           40.93779899999999        0.02447200000000        0.02502700000000
C           41.59406800000000        1.19539200000000       -0.07363800000000
C           40.95410300000000        2.51243600000000       -0.08853900000000
C           41.89026600000000        3.42602300000000       -0.25011800000000
C           43.18670600000000        2.74759300000000       -0.35019100000000
N           43.00852600000000        1.33434800000000       -0.22908400000000
C           44.37075600000000        3.36751000000000       -0.54057700000000
C           45.66807799999999        2.64488900000000       -0.57576300000000
C           46.93705299999999        3.26207900000000       -0.98295800000000
C           47.88979100000000        2.36558500000000       -0.82816100000000
N           45.83604400000000        1.41728100000000       -0.19397300000000
C           47.23467800000000        1.16414100000000       -0.32722900000000
C           47.84961000000000        0.02447200000000        0.02502700000000
C           47.09843000000000       -1.15948100000000        0.49284900000000
C           47.63292900000000       -2.17189500000000        1.16367600000000
C           46.60051500000000       -3.17966200000000        1.31362800000000
C           45.50688600000000       -2.71505400000000        0.72002900000000
C           44.25391000000000       -3.48765000000000        0.54357900000000
C           44.31724400000000       -4.96721700000000        0.62958000000000
C           43.61957000000000       -5.65186300000000        1.63671500000000
C           43.69524800000000       -7.04896500000000        1.72911600000000
C           42.98517000000000       -7.76836800000000        2.83714500000000
C           44.50063000000000       -7.75943700000000        0.82636200000000
C           45.19583900000000       -7.08543400000000       -0.18853700000000
C           46.08038700000000       -7.84988900000000       -1.12837400000000
C           45.11296700000000       -5.68791200000000       -0.27307300000000
C           43.08200400000000       -2.87526400000000        0.28722100000000
C           41.80719400000000       -3.53512700000000        0.02493800000000
C           40.91893100000000       -2.57261500000000       -0.11796200000000
C           41.61550000000000       -1.29218000000000        0.04578100000000
N           42.87979099999999       -1.46216500000000        0.27963400000000
N           45.73091700000000       -1.41586000000000        0.17590600000000
C           44.40515299999999        4.83842900000000       -0.71357400000000
C           44.99252700000000        5.64721200000000        0.27008300000000
C           45.04098000000000        7.03942900000000        0.10829100000000
C           45.71273799999999        7.89454300000000        1.14185700000000
C           44.52223699999999        7.61849300000000       -1.05988400000000
C           43.92170200000000        6.81887000000000       -2.04400900000000
C           43.39985100000000        7.44152500000000       -3.30437700000000
C           43.87963700000000        5.42739600000000       -1.87358500000000
H           39.90010400000000        2.73206500000000        0.01619700000000
H           41.70497100000000        4.49175500000000       -0.28927700000000
H           47.08636500000000        4.27069600000000       -1.34552300000000
H           48.93939400000000        2.52077000000000       -1.03982000000000
H           48.65681900000000       -2.25504800000000        1.50323700000000
H           46.71699600000000       -4.14763200000000        1.78323500000000
H           43.02567699999999       -5.09529300000000        2.35243400000000
H           42.74631099999999       -8.81242800000000        2.54037700000000
H           43.63317700000000       -7.78750000000000        3.73812800000000
H           42.03227800000000       -7.25568200000000        3.08751100000000
H           44.58800400000000       -8.83629200000000        0.91390000000000
H           46.22923200000000       -7.29030900000000       -2.07706800000000
H           45.62343100000000       -8.83167500000000       -1.37728500000000
H           47.06840799999999       -8.01887400000000       -0.65014500000000
H           45.66615100000000       -5.15904600000000       -1.04039400000000
H           41.60456400000000       -4.59517300000000       -0.05194300000000
H           39.86950900000000       -2.72609000000000       -0.33001200000000
H           45.41335100000000        5.19087800000000        1.15874700000000
H           45.27934200000000        8.91735300000000        1.14813200000000
H           46.79744600000000        7.96252600000000        0.91615800000000
H           45.57940099999999        7.45991800000000        2.15527300000000
H           44.58562700000000        8.69073000000000       -1.20357300000000
H           42.97360799999999        8.44539300000000       -3.09398100000000
H           42.59867000000000        6.81504000000000       -3.75235000000000
H           44.22880100000000        7.54510700000000       -4.03564200000000
H           43.44395200000000        4.80038200000000       -2.64312300000000
219
 energy: -356.220771608109 gnorm: 0.579346327821 xtb: 6.5.1 (b24c23e)
Cu          24.94836860169795       -0.01412873078405       -0.02255515602252
C           21.58674848682505        0.17227547558225       -0.25816372017953
C           22.25614213494614        1.28808845954130        0.10854149958182
C           21.59968764041367        2.52489788095807        0.50327075621658
C           22.55106714125663        3.40796962513936        0.79587475055272
C           23.84741398727926        2.75987693563626        0.58692358808435
N           23.65515517179756        1.42983959642208        0.16009014122850
C           25.05647882924104        3.35789624085744        0.77271995975688
C           26.33379825931422        2.68218835817884        0.55010487186631
C           27.62619082615731        3.36318575054501        0.54999596290092
C           28.57001878362573        2.44660667046321        0.32874255636491
N           26.48159645554210        1.39272577296736        0.33392367147085
C           27.88366965372576        1.17469835461707        0.18579740678949
C           28.46456044529040       -0.02472349677876       -0.01289543473401
C           27.70668620028755       -1.26420368964669       -0.15501577738342
C           28.26787655978811       -2.50174590945728       -0.13908496643701
C           27.23680432161621       -3.45100035254473       -0.39499436015244
C           26.07405956656241       -2.76387145393802       -0.55382120046410
C           24.79462219617811       -3.39232051037033       -0.90706787230537
C           24.76181483020364       -4.84190248393534       -1.24472477487717
C           24.69150986421875       -5.25615291541638       -2.58026111892540
C           24.68478906864129       -6.61895951953016       -2.89937264193414
C           24.58222718503938       -7.06007711172286       -4.33452664297577
C           24.71469759619392       -7.56742917049864       -1.87075444698889
C           24.77219669310276       -7.16418888652128       -0.53162366110979
C           24.83729266098185       -8.19816951051777        0.56018965178616
C           24.80355943547897       -5.79961475149608       -0.22449442325613
C           23.62874865034270       -2.70300799598647       -0.92396379364845
C           22.31588114959233       -3.24566346903956       -1.24194659130058
C           21.44674150432494       -2.25124698025845       -1.05127460402162
C           22.20195103553074       -1.08494877722475       -0.61561930677215
N           23.48765335622816       -1.34822436562989       -0.54043829525357
N           26.31110768850580       -1.37438928459680       -0.40400663876766
C           25.09726411672708        4.77365377834708        1.21874164947831
C           24.77818186431641        5.80761106129534        0.33069682973097
C           24.82314401799197        7.14059547060311        0.75186237331046
C           24.49952028757363        8.25277777623487       -0.20879646639827
C           25.22172822943687        7.43668260345314        2.06018219763503
C           25.56044699005435        6.41164993907010        2.95027216745312
C           25.94725042707086        6.73335393829433        4.36828147832080
C           25.48225291362800        5.08038036217840        2.52827206615863
H           20.50351752536242        0.21971941112048       -0.27345606777815
H           20.53610756886919        2.71190839245220        0.56282961241374
H           22.36343706014325        4.41915775451391        1.12802404337269
H           27.81135891799497        4.41512729160895        0.69468425216359
H           29.63147996833612        2.64422138747874        0.27443542443606
H           29.31244187930599       -2.71763404165810        0.01331639921085
H           27.35733486806827       -4.51904712945166       -0.48226740892344
H           24.64770762573021       -4.51345498924579       -3.37170399628423
H           25.07982568789915       -8.03505481156107       -4.48016284628173
H           23.51634541391372       -7.15608487390846       -4.61048588311238
H           25.06190078249646       -6.32461496778591       -5.00433527013471
H           24.69348980078546       -8.62669825142993       -2.11283919179722
H           24.67111157311114       -7.74462296765700        1.55381793733277
H           24.06410454757941       -8.96962089550877        0.39648160418142
H           25.83182641764052       -8.67999628732624        0.55046210017873
H           24.85955694143520       -5.47522554748889        0.81065258834543
H           22.06091935264183       -4.24827689223097       -1.55731115548217
H           20.38001307634406       -2.31796529755456       -1.18956743674640
H           24.49451461474303        5.57098358133276       -0.69051844800818
H           24.01547986696693        9.09221004470859        0.32077055179173
H           23.81412363275466        7.90179367916118       -0.99992987712594
H           25.43299864749893        8.61454985445342       -0.67650411381961
H           25.26779200023180        8.47203953978344        2.38704680446949
H           25.04117765828261        6.74046880312284        5.00024569250542
H           26.43231208636796        7.72335974088085        4.42616323796711
H           26.65239347288795        5.97934916276678        4.76089414789117
H           25.72388724635334        4.27735176327744        3.21835049080684
Cu          63.87061085836697       -0.00161105706753       -0.01323342576534
C           67.23231901136070        0.17271136863852       -0.25782891728228
C           66.56289550185279       -0.49011546773008       -1.22744556962882
C           67.21934098932495       -1.21350867921261       -2.30550087230855
C           66.26795506258097       -1.74037106075666       -3.07223011449475
C           64.97158938791635       -1.35931608682758       -2.50796090739109
N           65.16381056606703       -0.57896046953155       -1.34917952275930
C           63.76264192372440       -1.70423491920478       -3.03060815392165
C           62.48525296894162       -1.30226178454136       -2.44351951346983
C           61.19292814436271       -1.49171853874814       -3.09765065591488
C           60.24910044571524       -1.02409448338131       -2.27877238915885
N           62.33757086924003       -0.73561069632785       -1.26528541099279
C           60.93540873877123       -0.53262181725211       -1.09684482355866
C           60.35342814668417       -0.00839033286028       -0.00012769080648
C           61.11240080199931        0.47341687048753        1.15026612602768
C           60.55128912600229        0.80265425851855        2.34347852562369
C           61.58230857663852        1.31271131792618        3.18410713729841
C           62.74507716437508        1.27399074440221        2.47999184001194
C           64.02442515649672        1.78821264142858        2.98525978094141
C           64.05724505952384        2.51603520068257        4.28353557716010
C           64.12754104399737        3.91409350902105        4.30964611441835
C           64.13426060239958        4.59994566225789        5.52975793449043
C           64.23682439940103        6.10116868224845        5.55394690789446
C           64.10435343720772        3.87600265699347        6.72706982518546
C           64.04685363950763        2.47755238757012        6.71253070457561
C           63.98175808076219        1.71671494634967        8.00956573664317
C           64.01549397384535        1.80271808332261        5.48738454156768
C           65.19027343137793        1.61255120209598        2.31845400852349
C           66.50312781517076        2.06901992778430        2.75112623407566
C           67.37228468754364        1.60904973380502        1.84908322811998
C           66.61710827451461        0.86596338719873        0.85013992291589
N           65.33127626297660        0.86696896230908        1.12392372640610
N           62.50810076216225        0.74320621426182        1.18709902152844
C           63.72180466652266       -2.52669216679763       -4.26624066298991
C           64.04086848903570       -1.96155994799303       -5.50653235236284
C           63.99590576872343       -2.73712963256257       -6.66959243613959
C           64.31953042719091       -2.12403101172456       -8.00523197692949
C           63.59732263605851       -4.07615954199449       -6.58979333693770
C           63.25860254511397       -4.64573210022891       -5.35750309334446
C           62.87180178813009       -6.09725298320322       -5.27177154018776
C           63.33679901856275       -3.86984129343915       -4.19632325643174
H           68.31553740238331        0.17418556622541       -0.30767069720091
H           68.28293405283377       -1.32278107048460       -2.46855884950930
H           66.45561001080996       -2.34087175721878       -3.95100227062585
H           61.00771875473414       -1.92353389416475       -4.06776321308624
H           59.18771845087453       -1.02701215900552       -2.48398371667284
H           59.50671412921211        0.71641503422205        2.59342500858448
H           61.46172962695395        1.69384030357289        4.18566754579420
H           64.17134373302814        4.46751445065946        3.37599145039231
H           63.73922510088011        6.51244725122334        6.44984985713222
H           65.30270616895105        6.39294655463631        5.56934236624091
H           63.75715006900299        6.53977869449095        4.66110163967059
H           64.12556142670563        4.40338068196451        7.67708467865846
H           64.14793941013644        0.63610777311861        7.85053378999346
H           64.75494755267408        2.08869527660876        8.70495544981103
H           62.98722443868854        1.86018016927011        8.46964123718350
H           63.95949388792930        0.71818492561576        5.46396169285352
H           66.75812274434075        2.65101095841798        3.62634330382051
H           68.43902629127680        1.76047706933795        1.87469321613161
H           64.32453699516127       -0.91483739823708       -5.56352541645901
H           64.80357174734726       -2.86633415818163       -8.66407458405049
H           65.00492835655055       -1.26646527530962       -7.88834177714764
H           63.38605212052882       -1.77551195081508       -8.48289789379727
H           63.55125922123971       -4.67831090424808       -7.49324086294370
H           63.77787372278190       -6.70622166106225       -5.10268944193300
H           62.38673804246480       -6.42842815877264       -6.20653640208470
H           62.16665687021406       -6.26446091893561       -4.43827809088851
H           63.09516404523167       -4.30911074694839       -3.23293837015271
C           30.90277322205071        0.00208029156130       -0.00129566542375
C           32.25386506114245       -0.02027461305848       -0.02048504917168
C           33.51686914552997       -0.04114227979504       -0.02149283880495
C           34.80463874307499       -0.05303034900818       -0.02344701258104
C           36.08145781668043       -0.04324067541870       -0.02870324158177
C           37.29444178061804       -0.02366160689653       -0.03523671844925
C           38.57054497467238       -0.00052806400239       -0.01940266102171
C           39.75310984875417       -0.00405807996226       -0.00143568848297
C           49.05568216115901       -0.01098432921630       -0.00152659476368
C           50.35485685107742       -0.02036822554308       -0.01940196360871
C           51.59091500329205       -0.04141347867201       -0.02210004571022
C           52.87776774369538       -0.05337884147226       -0.02379203522199
C           54.15422128456797       -0.04320693512331       -0.02834250605140
C           55.37254068365997       -0.02377401521703       -0.03480797622627
C           56.69406387169076        0.00047984453870       -0.01959148974481
C           57.90763167984868        0.00221698313792       -0.00078429690355
Cu          44.31304625482757       -0.06578787502940       -0.02747943821788
C           41.01392491235718        0.01199512615549        0.02459238054612
C           41.62637056206530        1.21176470456239       -0.07353344357607
C           40.95483106606333        2.50366712076640       -0.08749135955931
C           41.89984291166454        3.42909715650014       -0.25108950600083
C           43.18508739198920        2.74578369185790       -0.34893551016654
N           43.00044146025453        1.35205705026923       -0.23383532466277
C           44.38355972788877        3.36685105843801       -0.54242153261666
C           45.66029174137824        2.66604444943603       -0.57908289802977
C           46.92236534921484        3.27339372419458       -0.98256262223127
C           47.88549483696011        2.35724615418537       -0.82568520147323