394
 energy: -726.891642003239 gnorm: 0.962255463798 xtb: 6.5.1 (b24c23e)
C           83.64842700000000        0.03475000000000        0.09890200000000
C           84.37882399999998       -1.34284300000000        0.06968800000000
C           83.77353800000000       -2.57544700000000        0.15998200000000
C           84.79650400000000       -3.55122700000000        0.03647600000000
C           85.99232800000000       -2.87967800000000       -0.12980000000000
N           85.73138400000001       -1.53415300000000       -0.05459800000000
C           87.41439099999999       -3.52958000000000       -0.38960400000000
C           88.54340200000000       -2.77251700000000       -0.34121900000000
C           89.84735000000001       -3.32421600000000       -0.64759200000000
C           90.74750899999999       -2.35337300000000       -0.54767200000000
N           88.73815000000000       -1.44850700000000       -0.04889900000000
C           90.06807900000000       -1.13415300000000       -0.15589200000000
C           90.73434999999999        0.03554400000000        0.03593400000000
C           89.95702500000000        1.33990200000000        0.49735600000000
C           90.49915799999999        2.41428500000000        1.17473000000000
C           89.47357299999999        3.37859900000000        1.33817500000000
C           88.33086400000001        2.86132400000000        0.76677900000000
C           86.91955400000001        3.57822600000000        0.67760300000000
C           86.88294200000000        5.05290700000000        0.78361600000000
C           87.19270200000000        5.84693700000000       -0.32641800000000
C           87.16624899999999        7.24020300000000       -0.22530000000000
C           86.83088499999999        7.84829600000000        0.99140400000000
C           86.81301499999999        9.32944200000000        1.05584800000000
O           86.48569800000000        9.80039800000000        2.27435900000000
O           87.05839400000001       10.09775400000000        0.14311600000000
C           86.52285600000000        7.05650300000000        2.10537600000000
C           86.55051399999999        5.66406000000000        1.99904000000000
C           85.79517199999999        2.83724500000000        0.49970300000000
C           84.47211400000000        3.42701200000000        0.39652000000000
C           83.58817999999999        2.44542900000000        0.24287900000000
C           84.31179500000000        1.19804700000000        0.23597400000000
N           85.63280000000000        1.48544400000000        0.38029400000000
N           88.62200299999999        1.59963400000000        0.30387400000000
C           87.45251699999999       -4.96888400000000       -0.73713800000000
C           87.18571400000000       -5.38247600000000       -2.04751700000000
C           87.20421599999999       -6.74012000000000       -2.37712600000000
C           87.49340499999998       -7.69423600000000       -1.39249600000000
C           87.52476899999999       -9.14561700000000       -1.69346000000000
O           87.25812800000000       -9.42350100000000       -2.98341300000000
O           87.75942400000000      -10.04355000000000       -0.90427300000000
C           87.76218799999998       -7.28353900000000       -0.08045400000000
C           87.73868999999999       -5.92518500000000        0.24440100000000
H           82.57038300000001        0.04002200000000       -0.00751100000000
H           82.71615000000000       -2.75241800000000        0.28261600000000
H           84.66991099999998       -4.62359200000000        0.04258400000000
H           86.43096300000001       -0.79677000000000       -0.09058100000000
H           90.06107299999999       -4.34091000000000       -0.92453000000000
H           91.80009399999999       -2.47593100000000       -0.72674000000000
H           91.52246000000000        2.50329200000000        1.50604900000000
H           89.56103699999998        4.34229200000000        1.81607100000000
H           87.45036800000000        5.36522000000000       -1.26751900000000
H           87.40666400000001        7.84051800000000       -1.09891500000000
H           86.51648200000000       10.77025500000000        2.15362600000000
H           86.25804499999998        7.50462000000000        3.05803100000000
H           86.31000500000000        5.03802500000000        2.85624400000000
H           84.24035700000000        4.47568500000000        0.43516800000000
H           82.52429400000000        2.55503700000000        0.13689400000000
H           87.93803399999999        0.94609900000000       -0.06841000000000
H           86.96551099999999       -4.63210700000000       -2.80396200000000
H           86.99222500000000       -7.03404200000000       -3.40085000000000
H           87.31731400000000      -10.39923100000000       -3.01758800000000
H           87.99146500000001       -8.01099200000000        0.69413700000000
H           87.94537500000000       -5.59496900000000        1.25988500000000
C          161.93377699999999        0.00802100000000        0.09257400000000
C          161.20338000000001        1.25248500000000        0.68411900000000
C          161.80866599999999        2.31376800000000        1.31747900000000
C          160.78570099999996        3.24134600000000        1.64458400000000
C          159.58987599999998        2.71563200000000        1.19486100000000
N          159.85081999999997        1.47921200000000        0.65880100000000
C          158.16781300000000        3.41303500000000        1.25402500000000
C          157.03880200000000        2.71463800000000        0.95783700000000
C          155.73485400000001        3.34514100000000        0.93134500000000
C          154.83469500000001        2.43254900000000        0.58537100000000
N          156.84405400000000        1.40010300000000        0.62549500000000
C          155.51412500000001        1.16708800000000        0.38891600000000
C          154.84785500000001        0.03554400000000        0.03593400000000
C          155.62517900000000       -1.33724400000000       -0.13644500000000
C          155.08304599999997       -2.60129200000000       -0.01268300000000
C          156.10863100000000       -3.53653000000000       -0.29894700000000
C          157.25134000000000       -2.81797100000000       -0.57776500000000
C          158.66265000000001       -3.41879200000000       -0.97890600000000
C          158.69926299999997       -4.78447300000000       -1.54533400000000
C          158.38950199999996       -4.99652400000000       -2.89355300000000
C          158.41595500000000       -6.28723600000000       -3.42785300000000
C          158.75131900000000       -7.37630400000000       -2.61294300000000
C          158.76918900000001       -8.72912400000000       -3.21942600000000
O          159.09650599999998       -9.69642100000000       -2.34141500000000
O          158.52380999999997       -9.00664900000000       -4.37975500000000
C          159.05934900000000       -7.16801800000000       -1.26220700000000
C          159.03169000000000       -5.87570100000000       -0.73294000000000
C          159.78703200000001       -2.67670100000000       -0.80569600000000
C          161.11008999999999       -3.15760300000000       -1.16235400000000
C          161.99402399999997       -2.21132600000000       -0.85958400000000
C          161.27040900000000       -1.09325300000000       -0.30648000000000
N          159.94940399999996       -1.41485200000000       -0.30633600000000
N          156.96020100000001       -1.48265700000000       -0.42584300000000
C          158.12968699999999        4.85538100000000        1.58870700000000
C          158.39649000000000        5.81259300000000        0.60285900000000
C          158.37798799999999        7.17391100000000        0.91695100000000
C          158.08879899999999        7.58528100000000        2.22485300000000
C          158.05743500000000        9.01754300000000        2.60657700000000
O          158.32407699999999        9.84429400000000        1.57814000000000
O          157.82277999999999        9.46632300000000        3.71459100000000
C          157.82001600000001        6.62991100000000        3.21348500000000
C          157.84351400000000        5.27009100000000        2.89482600000000
H          163.01182100000000        0.05102000000000       -0.00490700000000
H          162.86605399999996        2.41696900000000        1.50644200000000
H          160.91229300000001        4.19714500000000        2.13084900000000
H          159.15124100000000        0.83623400000000        0.29602500000000
H          155.52113100000000        4.37808400000000        1.13964700000000
H          153.78210999999999        2.62238500000000        0.48026100000000
H          154.05974399999999       -2.82940200000000        0.24356100000000
H          156.02116699999999       -4.61219900000000       -0.30386000000000
H          158.13183699999996       -4.14398800000000       -3.51877600000000
H          158.17553999999998       -6.43213500000000       -4.47789400000000
H          159.06572299999999      -10.50920000000000       -2.88417700000000
H          159.32415900000001       -7.99570100000000       -0.61159200000000
H          159.27219900000000       -5.70045500000000        0.31396300000000
H          161.34184700000000       -4.11229100000000       -1.59799200000000
H          163.05790999999999       -2.26178000000000       -1.00346300000000
H          157.64417000000000       -0.73157500000000       -0.46559100000000
H          158.61669300000000        5.48103300000000       -0.40972700000000
H          158.58998000000000        7.89563100000000        0.13367500000000
H          158.26489000000001       10.73177600000000        1.98507000000000
H          157.59073900000001        6.93285100000000        4.23201600000000
H          157.63682900000001        4.51962400000000        3.65446400000000
C           94.31106300000000        0.04798000000000        0.03837600000000
C           93.05879199999998        0.02879900000000        0.03402700000000
C           95.62473100000000        0.04721400000000        0.04030800000000
C           97.12786500000000        0.02879900000000        0.03402700000000
C          108.18245100000000        0.04798000000000        0.03837600000000
C          106.93018100000000        0.02879900000000        0.03402700000000
C          109.49611899999999        0.04721400000000        0.04030800000000
C          110.99925300000000        0.02879900000000        0.03402700000000
C          122.05383900000000        0.04798000000000        0.03837600000000
C          120.80156900000000        0.02879900000000        0.03402700000000
C          123.36750800000000        0.04721400000000        0.04030800000000
C          124.87064099999999        0.02879900000000        0.03402700000000
C          135.92522799999998        0.04798000000000        0.03837600000000
C          134.67295700000000        0.02879900000000        0.03402700000000
C          137.23889600000001        0.04721400000000        0.04030800000000
C          138.74202900000000        0.02879900000000        0.03402700000000
C          149.79661599999997        0.04798000000000        0.03837600000000
C          148.54434499999996        0.02879900000000        0.03402700000000
C          151.11028400000001        0.04721400000000        0.04030800000000
C          152.61341800000000        0.02879900000000        0.03402700000000
C           98.39465600000000       -0.02038100000000       -0.02100100000000
C           99.18903700000000        0.77262500000000       -1.13910600000000
C           98.68473399999999        1.23582300000000       -2.33728600000000
C           99.72230199999998        1.95582200000000       -2.98313700000000
C          100.82931199999999        1.90372800000000       -2.16220300000000
N          100.51675400000001        1.11845700000000       -1.08094600000000
C          102.21785199999999        2.62267400000000       -2.40913500000000
C          103.35334700000000        2.12149000000000       -1.85607100000000
C          104.63996000000000        2.77042000000000       -2.00376000000000
C          105.54835600000000        2.05247600000000       -1.35205600000000
N          103.56189500000001        1.01023400000000       -1.08759900000000
C          104.88659099999998        0.90940400000000       -0.75629300000000
C          105.55078500000000       -0.02038100000000       -0.02100100000000
C          104.75610800000000       -1.24046200000000        0.60331700000000
C          105.25890999999999       -2.49406100000000        0.88670400000000
C          104.22092999999998       -3.23635800000000        1.50619100000000
C          103.11548200000000       -2.41470900000000        1.57559500000000
C          101.72786800000000       -2.76073600000000        2.25401100000000
C          101.74037900000000       -3.72162200000000        3.38015900000000
C          101.30200999999998       -5.03921300000000        3.19655400000000
C          101.32865500000000       -5.94589900000000        4.25893600000000
C          101.79854700000000       -5.53988200000000        5.51457100000000
C          101.81062399999999       -6.53347300000000        6.61497300000000
O          102.27479300000000       -6.03126500000000        7.77511700000000
O          101.45279499999999       -7.69596000000000        6.54415000000000
C          102.24138900000000       -4.22403100000000        5.70113400000000
C          102.21244099999998       -3.32072900000000        4.63556100000000
C          100.59185300000000       -2.14392400000000        1.83544900000000
C           99.30594900000000       -2.38040900000000        2.45883200000000
C           98.39739400000001       -1.63348300000000        1.84079000000000
C           99.05859299999999       -0.88258700000000        0.79268000000000
N          100.38261700000000       -1.22773500000000        0.84258200000000
N          103.42881600000000       -1.23136300000000        0.95534000000000
C          102.20946000000001        3.86513600000000       -3.21416400000000
C          101.73944899999999        5.06028600000000       -2.65747100000000
C          101.71655000000000        6.23159100000000       -3.41883500000000
C          102.16258800000000        6.21352100000000       -4.74662200000000
C          102.12176599999999        7.47836300000000       -5.51918600000000
O          102.56972800000000        7.34040900000000       -6.78187300000000
O          101.73554000000000        8.56128800000000       -5.11637000000000
C          102.63041799999999        5.01869100000000       -5.30869000000000
C          102.65088099999998        3.85003400000000       -4.54357100000000
H           97.67754300000000        1.09243400000000       -2.69811100000000
H           99.66220100000000        2.47086800000000       -3.92998300000000
H          101.17615499999998        0.80597100000000       -0.37412100000000
H          104.83605500000000        3.68259900000000       -2.53807200000000
H          106.59287199999999        2.29679300000000       -1.28629300000000
H          106.26521600000000       -2.83187500000000        0.69072700000000
H          104.27954699999999       -4.24826700000000        1.87775000000000
H          100.93686399999999       -5.34409100000000        2.21761300000000
H          100.98109599999998       -6.96284700000000        4.09835900000000
H          102.21921099999999       -6.79233100000000        8.38667700000000
H          102.61090799999999       -3.88615500000000        6.66450400000000
H          102.55518699999999       -2.29655200000000        4.77077100000000
H           99.11013400000000       -3.03818000000000        3.28647600000000
H           97.35314800000000       -1.60223000000000        2.09303300000000
H          102.77007499999999       -0.48604400000000        0.74892800000000
H          101.39385100000000        5.06540600000000       -1.62546900000000
H          101.34973199999999        7.15006400000000       -2.96849300000000
H          102.48118500000000        8.24269200000000       -7.14871200000000
H          102.98183100000000        4.97992800000000       -6.33515400000000
H          103.01402400000001        2.91641400000000       -4.96940500000000
C          112.26604499999999       -0.02038100000000       -0.02100100000000
C          113.06042500000000        0.77262500000000       -1.13910600000000
C          112.55612199999999        1.23582300000000       -2.33728600000000
C          113.59368999999998        1.95582200000000       -2.98313700000000
C          114.70069999999998        1.90372800000000       -2.16220300000000
N          114.38814199999999        1.11845700000000       -1.08094600000000
C          116.08924000000000        2.62267400000000       -2.40913500000000
C          117.22473500000000        2.12149000000000       -1.85607100000000
C          118.51134800000000        2.77042000000000       -2.00376000000000
C          119.41974500000001        2.05247600000000       -1.35205600000000
N          117.43328299999999        1.01023400000000       -1.08759900000000
C          118.75797899999999        0.90940400000000       -0.75629300000000
C          119.42217300000000       -0.02038100000000       -0.02100100000000
C          118.62749599999999       -1.24046200000000        0.60331700000000
C          119.13029799999998       -2.49406100000000        0.88670400000000
C          118.09231800000001       -3.23635800000000        1.50619100000000
C          116.98687000000000       -2.41470900000000        1.57559500000000
C          115.59925600000000       -2.76073600000000        2.25401100000000
C          115.61176700000000       -3.72162200000000        3.38015900000000
C          115.17339899999999       -5.03921300000000        3.19655400000000
C          115.20004299999999       -5.94589900000000        4.25893600000000
C          115.66993600000001       -5.53988200000000        5.51457100000000
C          115.68201199999999       -6.53347300000000        6.61497300000000
O          116.14618100000000       -6.03126500000000        7.77511700000000
O          115.32418300000000       -7.69596000000000        6.54415000000000
C          116.11277699999998       -4.22403100000000        5.70113400000000
C          116.08382899999999       -3.32072900000000        4.63556100000000
C          114.46324100000000       -2.14392400000000        1.83544900000000
C          113.17733699999999       -2.38040900000000        2.45883200000000
C          112.26878200000000       -1.63348300000000        1.84079000000000
C          112.92998100000000       -0.88258700000000        0.79268000000000
N          114.25400499999999       -1.22773500000000        0.84258200000000
N          117.30020399999999       -1.23136300000000        0.95534000000000
C          116.08084800000000        3.86513600000000       -3.21416400000000
C          115.61083700000000        5.06028600000000       -2.65747100000000
C          115.58793799999999        6.23159100000000       -3.41883500000000
C          116.03397599999998        6.21352100000000       -4.74662200000000
C          115.99315499999999        7.47836300000000       -5.51918600000000
O          116.44111599999999        7.34040900000000       -6.78187300000000
O          115.60692800000000        8.56128800000000       -5.11637000000000
C          116.50180599999999        5.01869100000000       -5.30869000000000
C          116.52226999999999        3.85003400000000       -4.54357100000000
H          111.54893099999998        1.09243400000000       -2.69811100000000
H          113.53358999999999        2.47086800000000       -3.92998300000000
H          115.04754300000000        0.80597100000000       -0.37412100000000
H          118.70744300000000        3.68259900000000       -2.53807200000000
H          120.46426000000000        2.29679300000000       -1.28629300000000
H          120.13660400000001       -2.83187500000000        0.69072700000000
H          118.15093499999999       -4.24826700000000        1.87775000000000
H          114.80825200000000       -5.34409100000000        2.21761300000000
H          114.85248400000000       -6.96284700000000        4.09835900000000
H          116.09059999999998       -6.79233100000000        8.38667700000000
H          116.48229600000001       -3.88615500000000        6.66450400000000
H          116.42657500000000       -2.29655200000000        4.77077100000000
H          112.98152199999998       -3.03818000000000        3.28647600000000
H          111.22453600000000       -1.60223000000000        2.09303300000000
H          116.64146299999999       -0.48604400000000        0.74892800000000
H          115.26523899999998        5.06540600000000       -1.62546900000000
H          115.22112099999998        7.15006400000000       -2.96849300000000
H          116.35257300000001        8.24269200000000       -7.14871200000000
H          116.85321900000000        4.97992800000000       -6.33515400000000
H          116.88541200000000        2.91641400000000       -4.96940500000000
C          126.13743299999999       -0.02038100000000       -0.02100100000000
C          126.93181400000000        0.77262500000000       -1.13910600000000
C          126.42751000000000        1.23582300000000       -2.33728600000000
C          127.46507799999999        1.95582200000000       -2.98313700000000
C          128.57208800000001        1.90372800000000       -2.16220300000000
N          128.25953000000001        1.11845700000000       -1.08094600000000
C          129.96062900000001        2.62267400000000       -2.40913500000000
C          131.09612400000000        2.12149000000000       -1.85607100000000
C          132.38273599999999        2.77042000000000       -2.00376000000000
C          133.29113300000000        2.05247600000000       -1.35205600000000
N          131.30467100000001        1.01023400000000       -1.08759900000000
C          132.62936700000000        0.90940400000000       -0.75629300000000
C          133.29356200000001       -0.02038100000000       -0.02100100000000
C          132.49888400000000       -1.24046200000000        0.60331700000000
C          133.00168600000001       -2.49406100000000        0.88670400000000
C          131.96370600000000       -3.23635800000000        1.50619100000000
C          130.85825800000001       -2.41470900000000        1.57559500000000
C          129.47064399999999       -2.76073600000000        2.25401100000000
C          129.48315500000001       -3.72162200000000        3.38015900000000
C          129.04478700000001       -5.03921300000000        3.19655400000000
C          129.07143199999999       -5.94589900000000        4.25893600000000
C          129.54132400000000       -5.53988200000000        5.51457100000000
C          129.55340000000001       -6.53347300000000        6.61497300000000
O          130.01756900000001       -6.03126500000000        7.77511700000000
O          129.19557100000000       -7.69596000000000        6.54415000000000
C          129.98416499999999       -4.22403100000000        5.70113400000000
C          129.95521800000000       -3.32072900000000        4.63556100000000
C          128.33462900000001       -2.14392400000000        1.83544900000000
C          127.04872600000000       -2.38040900000000        2.45883200000000
C          126.14017000000000       -1.63348300000000        1.84079000000000
C          126.80136899999999       -0.88258700000000        0.79268000000000
N          128.12539400000000       -1.22773500000000        0.84258200000000
N          131.17159200000000       -1.23136300000000        0.95534000000000
C          129.95223600000000        3.86513600000000       -3.21416400000000
C          129.48222500000000        5.06028600000000       -2.65747100000000
C          129.45932700000000        6.23159100000000       -3.41883500000000
C          129.90536499999999        6.21352100000000       -4.74662200000000
C          129.86454300000000        7.47836300000000       -5.51918600000000
O          130.31250399999999        7.34040900000000       -6.78187300000000
O          129.47831600000001        8.56128800000000       -5.11637000000000
C          130.37319400000001        5.01869100000000       -5.30869000000000
C          130.39365799999999        3.85003400000000       -4.54357100000000
H          125.42031999999999        1.09243400000000       -2.69811100000000
H          127.40497799999999        2.47086800000000       -3.92998300000000
H          128.91893099999999        0.80597100000000       -0.37412100000000
H          132.57883100000001        3.68259900000000       -2.53807200000000
H          134.33564899999999        2.29679300000000       -1.28629300000000
H          134.00799300000000       -2.83187500000000        0.69072700000000
H          132.02232400000000       -4.24826700000000        1.87775000000000
H          128.67964100000000       -5.34409100000000        2.21761300000000
H          128.72387200000000       -6.96284700000000        4.09835900000000
H          129.96198799999999       -6.79233100000000        8.38667700000000
H          130.35368399999999       -3.88615500000000        6.66450400000000
H          130.29796300000001       -2.29655200000000        4.77077100000000
H          126.85291099999999       -3.03818000000000        3.28647600000000
H          125.09592499999998       -1.60223000000000        2.09303300000000
H          130.51285200000001       -0.48604400000000        0.74892800000000
H          129.13662800000000        5.06540600000000       -1.62546900000000
H          129.09250900000001        7.15006400000000       -2.96849300000000
H          130.22396100000000        8.24269200000000       -7.14871200000000
H          130.72460699999999        4.97992800000000       -6.33515400000000
H          130.75680100000000        2.91641400000000       -4.96940500000000
C          140.00882099999998       -0.02038100000000       -0.02100100000000
C          140.80320199999997        0.77262500000000       -1.13910600000000
C          140.29889899999998        1.23582300000000       -2.33728600000000
C          141.33646600000000        1.95582200000000       -2.98313700000000
C          142.44347700000000        1.90372800000000       -2.16220300000000
N          142.13091900000001        1.11845700000000       -1.08094600000000
C          143.83201700000001        2.62267400000000       -2.40913500000000
C          144.96751200000000        2.12149000000000       -1.85607100000000
C          146.25412399999996        2.77042000000000       -2.00376000000000
C          147.16252100000000        2.05247600000000       -1.35205600000000
N          145.17605900000001        1.01023400000000       -1.08759900000000
C          146.50075500000000        0.90940400000000       -0.75629300000000
C          147.16495000000000       -0.02038100000000       -0.02100100000000
C          146.37027299999997       -1.24046200000000        0.60331700000000
C          146.87307500000000       -2.49406100000000        0.88670400000000
C          145.83509500000000       -3.23635800000000        1.50619100000000
C          144.72964600000000       -2.41470900000000        1.57559500000000
C          143.34203299999999       -2.76073600000000        2.25401100000000
C          143.35454300000001       -3.72162200000000        3.38015900000000
C          142.91617499999998       -5.03921300000000        3.19655400000000
C          142.94282000000001       -5.94589900000000        4.25893600000000
C          143.41271200000000       -5.53988200000000        5.51457100000000
C          143.42478800000001       -6.53347300000000        6.61497300000000
O          143.88895699999998       -6.03126500000000        7.77511700000000
O          143.06695999999999       -7.69596000000000        6.54415000000000
C          143.85555400000001       -4.22403100000000        5.70113400000000
C          143.82660600000000       -3.32072900000000        4.63556100000000
C          142.20601700000000       -2.14392400000000        1.83544900000000
C          140.92011400000001       -2.38040900000000        2.45883200000000
C          140.01155800000001       -1.63348300000000        1.84079000000000
C          140.67275699999999       -0.88258700000000        0.79268000000000
N          141.99678200000000       -1.22773500000000        0.84258200000000
N          145.04298000000000       -1.23136300000000        0.95534000000000
C          143.82362400000000        3.86513600000000       -3.21416400000000
C          143.35361300000000        5.06028600000000       -2.65747100000000
C          143.33071500000000        6.23159100000000       -3.41883500000000
C          143.77675300000001        6.21352100000000       -4.74662200000000
C          143.73593099999999        7.47836300000000       -5.51918600000000
O          144.18389300000001        7.34040900000000       -6.78187300000000
O          143.34970400000000        8.56128800000000       -5.11637000000000
C          144.24458200000001        5.01869100000000       -5.30869000000000
C          144.26504600000001        3.85003400000000       -4.54357100000000
H          139.29170800000000        1.09243400000000       -2.69811100000000
H          141.27636600000000        2.47086800000000       -3.92998300000000
H          142.79031900000001        0.80597100000000       -0.37412100000000
H          146.45022000000000        3.68259900000000       -2.53807200000000
H          148.20703700000001        2.29679300000000       -1.28629300000000
H          147.87938099999997       -2.83187500000000        0.69072700000000
H          145.89371199999999       -4.24826700000000        1.87775000000000
H          142.55102899999997       -5.34409100000000        2.21761300000000
H          142.59526000000000       -6.96284700000000        4.09835900000000