      -----------------------------------------------------------      
     |                   =====================                   |     
     |                           x T B                           |     
     |                   =====================                   |     
     |                         S. Grimme                         |     
     |          Mulliken Center for Theoretical Chemistry        |     
     |                    University of Bonn                     |     
      -----------------------------------------------------------      

   * xtb version 6.5.1 (b24c23e) compiled by 'conda@728c89f4b128' on 2022-07-12

   xtb is free software: you can redistribute it and/or modify it under
   the terms of the GNU Lesser General Public License as published by
   the Free Software Foundation, either version 3 of the License, or
   (at your option) any later version.
   
   xtb is distributed in the hope that it will be useful,
   but WITHOUT ANY WARRANTY; without even the implied warranty of
   MERCHANTABILITY or FITNESS FOR A PARTICULAR PURPOSE.  See the
   GNU Lesser General Public License for more details.
   
   Cite this work as:
   * C. Bannwarth, E. Caldeweyher, S. Ehlert, A. Hansen, P. Pracht,
     J. Seibert, S. Spicher, S. Grimme, WIREs Comput. Mol. Sci., 2020, 11,
     e01493. DOI: 10.1002/wcms.1493
   
   for GFN2-xTB:
   * C. Bannwarth, S. Ehlert and S. Grimme., J. Chem. Theory Comput., 2019,
     15, 1652-1671. DOI: 10.1021/acs.jctc.8b01176
   for GFN1-xTB:
   * S. Grimme, C. Bannwarth, P. Shushkov, J. Chem. Theory Comput., 2017,
     13, 1989-2009. DOI: 10.1021/acs.jctc.7b00118
   for GFN0-xTB:
   * P. Pracht, E. Caldeweyher, S. Ehlert, S. Grimme, ChemRxiv, 2019, preprint.
     DOI: 10.26434/chemrxiv.8326202.v1
   for GFN-FF:
   * S. Spicher and S. Grimme, Angew. Chem. Int. Ed., 2020, 59, 15665-15673.
     DOI: 10.1002/anie.202004239
   
   for ALPB and GBSA implicit solvation:
   * S. Ehlert, M. Stahn, S. Spicher, S. Grimme, J. Chem. Theory Comput.,
     2021, 17, 4250-4261. DOI: 10.1021/acs.jctc.1c00471
   
   for DFT-D4:
   * E. Caldeweyher, C. Bannwarth and S. Grimme, J. Chem. Phys., 2017,
     147, 034112. DOI: 10.1063/1.4993215
   * E. Caldeweyher, S. Ehlert, A. Hansen, H. Neugebauer, S. Spicher,
     C. Bannwarth and S. Grimme, J. Chem. Phys., 2019, 150, 154122.
     DOI: 10.1063/1.5090222
   * E. Caldeweyher, J.-M. Mewes, S. Ehlert and S. Grimme, Phys. Chem. Chem. Phys.
     2020, 22, 8499-8512. DOI: 10.1039/D0CP00502A
   
   for sTDA-xTB:
   * S. Grimme and C. Bannwarth, J. Chem. Phys., 2016, 145, 054103.
     DOI: 10.1063/1.4959605
   
   in the mass-spec context:
   * V. Asgeirsson, C. Bauer and S. Grimme, Chem. Sci., 2017, 8, 4879.
     DOI: 10.1039/c7sc00601b
   * J. Koopman and S. Grimme, ACS Omega 2019, 4, 12, 15120-15133.
     DOI: 10.1021/acsomega.9b02011
   
   for metadynamics refer to:
   * S. Grimme, J. Chem. Theory Comput., 2019, 155, 2847-2862
     DOI: 10.1021/acs.jctc.9b00143
   
   for SPH calculations refer to:
   * S. Spicher and S. Grimme, J. Chem. Theory Comput., 2021, 17, 1701-1714
     DOI: 10.1021/acs.jctc.0c01306
   
   with help from (in alphabetical order)
   P. Atkinson, C. Bannwarth, F. Bohle, G. Brandenburg, E. Caldeweyher
   M. Checinski, S. Dohm, S. Ehlert, S. Ehrlich, I. Gerasimov, C. Hölzer
   A. Katbashev, J. Koopman, C. Lavigne, S. Lehtola, F. März, M. Müller,
   F. Musil, H. Neugebauer, J. Pisarek, C. Plett, P. Pracht, F. Pultar,
   J. Seibert, P. Shushkov, S. Spicher, M. Stahn, M. Steiner, T. Strunk,
   J. Stückrath, T. Rose, and J. Unsleber
   
 * started run on 2022/07/30 at 11:05:46.382     

           -------------------------------------------------
          |                Calculation Setup                |
           -------------------------------------------------

          program call               : xtb Ni_BSA_C6_3.xyz --gfn 1 --opt -T 48
          hostname                   : cx3-15-13.cx3.hpc.ic.ac.uk
          coordinate file            : Ni_BSA_C6_3.xyz
          omp threads                :                     1

   ID    Z sym.   atoms
    1   28 Ni     1, 65, 141
    2    6 C      2-6, 8-12, 17-21, 23-28, 30-34, 39-44, 66-70, 72-76, 81-85,
                  87-92, 94-98, 103-108, 129-140, 142-146, 148-152, 157-161,
                  163-168, 170-174, 179-184
    3    7 N      7, 22, 29, 45, 71, 86, 93, 109, 147, 162, 169, 185
    4   16 S      13, 35, 77, 99, 153, 175
    5    8 O      14-16, 36-38, 78-80, 100-102, 154-156, 176-178
    6    1 H      46-64, 110-128, 186-203

molecular fragmentation (1/2 indicates fragments):
111111111111111111111111111111111111111111111111111111111111111122222222
222222222222222222222222222222222222222222222222222222222222222222222222
22222222222222222222222222222222222222222222222222222222222
# atoms in fragment 1/2:    64   139
 fragment masses (1/2) :      678.34     1499.80
CMA distance (Bohr)    :  45.968
constraining FC (au)   :  0.0500
########################################################################
[WARNING] Please study the warnings concerning your input carefully
-1- prog_main_parseArguments: Unknown option '-T' provided
########################################################################

           -------------------------------------------------
          |                 G F N 1 - x T B                 |
           -------------------------------------------------

        Reference                      10.1021/acs.jctc.7b00118
      * Hamiltonian:
        H0-scaling (s, p, d)           1.850000    2.250000    2.000000
        zeta-weighting                 0.000000
      * Dispersion:
        s8                             2.400000
        a1                             0.630000
        a2                             5.000000
        s9                             0.000000
      * Repulsion:
        kExp                           1.500000
        rExp                           1.000000
      * Coulomb:
        alpha                          2.000000
        third order                    atomic
        anisotropic                    false
      * Halogen bond correction:
        rad-scale                      1.300000
        damping                        0.440000


          ...................................................
          :                      SETUP                      :
          :.................................................:
          :  # basis functions                 754          :
          :  # atomic orbitals                 745          :
          :  # shells                          415          :
          :  # electrons                       722          :
          :  # halogen bonds                     0          :
          :  max. iterations                   250          :
          :  Hamiltonian                  GFN1-xTB          :
          :  restarted?                      false          :
          :  GBSA solvation                  false          :
          :  PC potential                    false          :
          :  electronic temp.          300.0000000     K    :
          :  accuracy                    1.0000000          :
          :  -> integral cutoff          0.2500000E+02      :
          :  -> integral neglect         0.1000000E-07      :
          :  -> SCF convergence          0.1000000E-05 Eh   :
          :  -> wf. convergence          0.2000000E-04 e    :
          :  Broyden damping             0.4000000          :
          ...................................................

 iter      E             dE          RMSdq      gap      omega  full diag
   1   -418.7395273 -0.418740E+03  0.104E+01    0.30       0.0  T
   2   -380.3680660  0.383715E+02  0.909E+00    0.01       1.0  T
   3   -267.2298774  0.113138E+03  0.986E+00    0.10       1.0  T
   4    717.2378877  0.984468E+03  0.156E+01    0.02       1.0  T
   5   1908.9318975  0.119169E+04  0.202E+01    0.08       1.0  T
   6   -162.6287109 -0.207156E+04  0.982E+00    0.05       1.0  T
   7   -100.4630893  0.621656E+02  0.104E+01    0.00       1.0  T
   8   -376.1221128 -0.275659E+03  0.570E+00    0.13       1.0  T
   9   -407.6457148 -0.315236E+02  0.428E+00    0.19       1.0  T
  10   -417.6922055 -0.100465E+02  0.302E+00    0.15       1.0  T
  11   -417.1610328  0.531173E+00  0.296E+00    0.05       1.0  T
  12   -418.3076420 -0.114661E+01  0.266E+00    0.15       1.0  T
  13   -417.8170615  0.490581E+00  0.256E+00    0.01       1.0  T
  14   -418.5236785 -0.706617E+00  0.214E+00    0.48       1.0  T
  15   -418.6996301 -0.175952E+00  0.189E+00    0.30       1.0  T
  16   -418.7633750 -0.637450E-01  0.177E+00    0.26       1.0  T
  17   -419.5551769 -0.791802E+00  0.128E+00    0.21       1.0  T
  18   -419.4191799  0.135997E+00  0.121E+00    0.00       1.0  T
  19   -419.8234762 -0.404296E+00  0.382E-01    0.12       1.0  T
  20   -419.8528717 -0.293955E-01  0.336E-01    0.47       1.0  T
  21   -419.8586311 -0.575941E-02  0.275E-01    0.42       1.0  T
  22   -419.8691062 -0.104752E-01  0.178E-01    0.46       1.0  T
  23   -419.8734280 -0.432181E-02  0.117E-01    0.47       1.0  T
  24   -419.8764489 -0.302090E-02  0.849E-02    0.57       1.0  T
  25   -419.8773101 -0.861154E-03  0.681E-02    0.62       1.0  T
  26   -419.8780578 -0.747730E-03  0.527E-02    0.66       1.0  T
  27   -419.8785821 -0.524278E-03  0.400E-02    0.71       1.0  T
  28   -419.8787649 -0.182816E-03  0.336E-02    0.75       1.0  T
  29   -419.8788671 -0.102219E-03  0.294E-02    0.77       1.0  T
  30   -419.8789433 -0.761645E-04  0.247E-02    0.80       1.0  T
  31   -419.8790487 -0.105364E-03  0.192E-02    0.82       1.0  T
  32   -419.8791137 -0.650225E-04  0.155E-02    0.83       1.0  T
  33   -419.8791604 -0.466656E-04  0.133E-02    0.85       1.0  T
  34   -419.8791996 -0.392104E-04  0.119E-02    0.86       1.0  T
  35   -419.8792379 -0.383082E-04  0.104E-02    0.87       1.0  T
  36   -419.8793040 -0.660778E-04  0.733E-03    0.90       1.0  T
  37   -419.8793482 -0.441956E-04  0.444E-03    0.92       1.6  T
  38   -419.8793649 -0.167608E-04  0.305E-03    0.94       2.3  T
  39   -419.8793712 -0.628073E-05  0.222E-03    0.95       3.2  T
  40   -419.8793739 -0.269514E-05  0.173E-03    0.96       4.0  T
  41   -419.8793744 -0.493727E-06  0.140E-03    0.96       5.0  T
  42   -419.8793748 -0.384429E-06  0.114E-03    0.97       6.2  T
  43   -419.8793753 -0.503488E-06  0.790E-04    0.97       8.9  T
  44   -419.8793755 -0.197902E-06  0.651E-04    0.97      10.8  T
  45   -419.8793756 -0.105716E-06  0.578E-04    0.97      12.1  T
  46   -419.8793757 -0.880719E-07  0.518E-04    0.97      13.5  T
  47   -419.8793758 -0.114578E-06  0.409E-04    0.97      17.2  T
  48   -419.8793759 -0.130661E-06  0.263E-04    0.97      26.7  T
  49   -419.8793760 -0.591688E-07  0.170E-04    0.97      41.3  T
  50   -419.8793760 -0.255360E-07  0.110E-04    0.97      63.7  T

   *** convergence criteria satisfied after 50 iterations ***

         #    Occupation            Energy/Eh            Energy/eV
      -------------------------------------------------------------
         1        2.0000           -1.0317061             -28.0742
       ...           ...                  ...                  ...
       355        2.0000           -0.4198046             -11.4235
       356        2.0000           -0.4194385             -11.4135
       357        2.0000           -0.4187130             -11.3938
       358        2.0000           -0.4145008             -11.2791
       359        2.0000           -0.4134148             -11.2496
       360        2.0000           -0.4128925             -11.2354
       361        2.0000           -0.4019812             -10.9385 (HOMO)
       362                         -0.3662817              -9.9670 (LUMO)
       363                         -0.3658142              -9.9543
       364                         -0.3655889              -9.9482
       365                         -0.3632814              -9.8854
       366                         -0.3628276              -9.8730
       ...                                ...                  ...
       745                          2.4490626              66.6424
      -------------------------------------------------------------
                  HL-Gap            0.0356995 Eh            0.9714 eV
             Fermi-level           -0.3845031 Eh          -10.4629 eV

 SCC (total)                   0 d,  0 h,  0 min,  9.033 sec
 SCC setup                      ...        0 min,  0.012 sec (  0.128%)
 Dispersion                     ...        0 min,  0.007 sec (  0.080%)
 classical contributions        ...        0 min,  0.002 sec (  0.027%)
 integral evaluation            ...        0 min,  0.218 sec (  2.411%)
 iterations                     ...        0 min,  8.263 sec ( 91.475%)
 molecular gradient             ...        0 min,  0.496 sec (  5.487%)
 printout                       ...        0 min,  0.035 sec (  0.392%)

         :::::::::::::::::::::::::::::::::::::::::::::::::::::
         ::                     SUMMARY                     ::
         :::::::::::::::::::::::::::::::::::::::::::::::::::::
         :: total energy            -414.275480956610 Eh    ::
         :: gradient norm              1.204949275179 Eh/a0 ::
         :: HOMO-LUMO gap              0.971432627842 eV    ::
         ::.................................................::
         :: SCC energy              -419.879375993693 Eh    ::
         :: -> electrostatic           0.814199876009 Eh    ::
         :: repulsion energy           5.787525150973 Eh    ::
         :: dispersion energy         -0.183630113891 Eh    ::
         :: halogen bond corr.         0.000000000000 Eh    ::
         :: add. restraining           0.000000000000 Eh    ::
         :: total charge              -0.000000000725 e     ::
         :::::::::::::::::::::::::::::::::::::::::::::::::::::

      ----------------------------------------------------------- 
     |                   =====================                   |
     |                        A N C O P T                        |
     |                   =====================                   |
     |               Approximate Normal Coordinate               |
     |                Rational Function Optimizer                |
      ----------------------------------------------------------- 

          ...................................................
          :                      SETUP                      :
          :.................................................:
          :   optimization level            normal          :
          :   max. optcycles                   609          :
          :   ANC micro-cycles                  20          :
          :   degrees of freedom               603          :
          :.................................................:
          :   RF solver                   davidson          :
          :   write xtbopt.log                true          :
          :   linear?                        false          :
          :   energy convergence         0.5000000E-05 Eh   :
          :   grad. convergence          0.1000000E-02 Eh/α :
          :   maximium RF displ.         1.0000000          :
          :   Hlow (freq-cutoff)         0.1000000E-01      :
          :   Hmax (freq-cutoff)         5.0000000          :
          :   S6 in model hess.         20.0000000          :
          ...................................................

generating ANC from model Hessian ...
Using Lindh-Hessian (1995)
 Shifting diagonal of input Hessian by    1.0052892522633004E-002
 Lowest  eigenvalues of input Hessian
    0.010000    0.010006    0.010029    0.010033    0.010038    0.010040
    0.010044    0.010046    0.000000    0.000000    0.000000    0.000000
    0.000000    0.000000    0.010060    0.010064    0.010087    0.010097
 Highest eigenvalues
    2.701718    2.702275    2.703971    2.703979    3.230050    3.609190


........................................................................
.............................. CYCLE    1 ..............................
........................................................................
   1   -419.8793760 -0.419879E+03  0.768E-05    0.97       0.0  T
   2   -419.8793760 -0.308330E-08  0.837E-05    0.97      83.8  T
   3   -419.8793760 -0.148600E-08  0.508E-05    0.97     138.1  T
     SCC iter.                  ...        0 min,  0.505 sec
     gradient                   ...        0 min,  0.499 sec
 * total energy  :  -414.2754810 Eh     change       -0.1403481E-07 Eh
   gradient norm :     1.2049509 Eh/α   predicted     0.0000000E+00 (-100.00%)
   displ. norm   :     0.5089223 α      lambda       -0.5299991E+00
   maximum displ.:     0.1827613 α      in ANC's #603, #480, #487, ...

........................................................................
.............................. CYCLE    2 ..............................
........................................................................
   1   -419.9838742 -0.419984E+03  0.170E-01    1.09       0.0  T
   2   -419.9890578 -0.518353E-02  0.102E-01    1.08       1.0  T
   3   -419.9913029 -0.224509E-02  0.436E-02    1.10       1.0  T
   4   -419.9913286 -0.256956E-04  0.299E-02    1.09       1.0  T
   5   -419.9914673 -0.138710E-03  0.119E-02    1.10       1.0  T
   6   -419.9915264 -0.591339E-04  0.327E-03    1.10       2.1  T
   7   -419.9915319 -0.551141E-05  0.169E-03    1.10       4.1  T
   8   -419.9915330 -0.108523E-05  0.498E-04    1.10      14.1  T
   9   -419.9915331 -0.701462E-07  0.301E-04    1.10      23.3  T
  10   -419.9915331 -0.434873E-07  0.102E-04    1.10      68.8  T
  11   -419.9915331 -0.472454E-08  0.348E-05    1.10     201.7  T
     SCC iter.                  ...        0 min,  1.825 sec
     gradient                   ...        0 min,  0.497 sec
 * total energy  :  -414.6156234 Eh     change       -0.3401424E+00 Eh
   gradient norm :     0.4534004 Eh/α   predicted    -0.3336727E+00 (  -1.90%)
   displ. norm   :     0.5756061 α      lambda       -0.1968317E+00
   maximum displ.:     0.1371354 α      in ANC's #192, #114, #193, ...

........................................................................
.............................. CYCLE    3 ..............................
........................................................................
   1   -420.0991773 -0.420099E+03  0.160E-01    1.14       0.0  T
   2   -420.1032645 -0.408717E-02  0.948E-02    1.19       1.0  T
   3   -420.1051695 -0.190496E-02  0.524E-02    1.20       1.0  T
   4   -420.1056482 -0.478785E-03  0.327E-02    1.19       1.0  T
   5   -420.1058416 -0.193341E-03  0.145E-02    1.20       1.0  T
   6   -420.1059520 -0.110413E-03  0.417E-03    1.19       1.7  T
   7   -420.1059581 -0.611259E-05  0.176E-03    1.19       4.0  T
   8   -420.1059591 -0.102106E-05  0.704E-04    1.19      10.0  T
   9   -420.1059594 -0.251286E-06  0.361E-04    1.19      19.5  T
  10   -420.1059594 -0.622223E-07  0.851E-05    1.19      82.5  T
  11   -420.1059594 -0.169757E-08  0.469E-05    1.19     149.7  T
     SCC iter.                  ...        0 min,  1.830 sec
     gradient                   ...        0 min,  0.499 sec
 * total energy  :  -414.7693307 Eh     change       -0.1537073E+00 Eh
   gradient norm :     0.2259000 Eh/α   predicted    -0.1310240E+00 ( -14.76%)
   displ. norm   :     0.7228451 α      lambda       -0.1240500E+00
   maximum displ.:     0.1907443 α      in ANC's #114, #192, #108, ...

........................................................................
.............................. CYCLE    4 ..............................
........................................................................
   1   -420.2009416 -0.420201E+03  0.133E-01    1.25       0.0  T
   2   -420.2030888 -0.214724E-02  0.861E-02    1.25       1.0  T
   3   -420.2045750 -0.148620E-02  0.449E-02    1.25       1.0  T
   4   -420.2049859 -0.410941E-03  0.309E-02    1.25       1.0  T
   5   -420.2052194 -0.233498E-03  0.114E-02    1.25       1.0  T
   6   -420.2052871 -0.677213E-04  0.334E-03    1.25       2.1  T
   7   -420.2052914 -0.424687E-05  0.172E-03    1.25       4.1  T
   8   -420.2052927 -0.127851E-05  0.578E-04    1.25      12.1  T
   9   -420.2052928 -0.161608E-06  0.267E-04    1.25      26.3  T
  10   -420.2052929 -0.298358E-07  0.789E-05    1.25      89.0  T
  11   -420.2052929 -0.171099E-08  0.448E-05    1.25     156.7  T
     SCC iter.                  ...        0 min,  1.827 sec
     gradient                   ...        0 min,  0.494 sec
 * total energy  :  -414.8683357 Eh     change       -0.9900495E-01 Eh
   gradient norm :     0.1190933 Eh/α   predicted    -0.9443348E-01 (  -4.62%)
   displ. norm   :     0.8326566 α      lambda       -0.8635435E-01
   maximum displ.:     0.2649258 α      in ANC's #114, #108, #59, ...

........................................................................
.............................. CYCLE    5 ..............................
........................................................................
   1   -420.2373120 -0.420237E+03  0.772E-02    1.28       0.0  T
   2   -420.2375460 -0.233991E-03  0.684E-02    1.28       1.0  T
   3   -420.2384066 -0.860640E-03  0.281E-02    1.28       1.0  T
   4   -420.2382641  0.142528E-03  0.250E-02    1.28       1.0  T
   5   -420.2384856 -0.221508E-03  0.627E-03    1.28       1.1  T
   6   -420.2385103 -0.246832E-04  0.190E-03    1.28       3.7  T
   7   -420.2385121 -0.175777E-05  0.895E-04    1.28       7.8  T
   8   -420.2385125 -0.432077E-06  0.317E-04    1.28      22.1  T
   9   -420.2385125 -0.395760E-07  0.143E-04    1.28      49.1  T
  10   -420.2385125 -0.531242E-08  0.625E-05    1.28     112.3  T
     SCC iter.                  ...        0 min,  1.661 sec
     gradient                   ...        0 min,  0.499 sec
 * total energy  :  -414.9440646 Eh     change       -0.7572895E-01 Eh
   gradient norm :     0.1041876 Eh/α   predicted    -0.7311292E-01 (  -3.45%)
   displ. norm   :     0.8512875 α      lambda       -0.6754392E-01
   maximum displ.:     0.2898058 α      in ANC's #114, #108, #59, ...

........................................................................
.............................. CYCLE    6 ..............................
........................................................................
   1   -420.2477330 -0.420248E+03  0.605E-02    1.26       0.0  T
   2   -420.2477346 -0.154608E-05  0.654E-02    1.27       1.0  T
   3   -420.2484449 -0.710379E-03  0.308E-02    1.27       1.0  T
   4   -420.2481045  0.340441E-03  0.257E-02    1.27       1.0  T
   5   -420.2484460 -0.341514E-03  0.452E-03    1.27       1.6  T
   6   -420.2484555 -0.952857E-05  0.119E-03    1.27       5.9  T
   7   -420.2484562 -0.653711E-06  0.528E-04    1.27      13.3  T
   8   -420.2484564 -0.164558E-06  0.210E-04    1.27      33.5  T
   9   -420.2484564 -0.191424E-07  0.715E-05    1.27      98.1  T
  10   -420.2484564 -0.154165E-08  0.320E-05    1.27     219.6  T
     SCC iter.                  ...        0 min,  1.662 sec
     gradient                   ...        0 min,  0.499 sec
 * total energy  :  -414.9966056 Eh     change       -0.5254099E-01 Eh
   gradient norm :     0.0748473 Eh/α   predicted    -0.5824677E-01 (  10.86%)
   displ. norm   :     0.7446299 α      lambda       -0.3653317E-01
   maximum displ.:     0.3081218 α      in ANC's #59, #108, #114, ...

........................................................................
.............................. CYCLE    7 ..............................
........................................................................
   1   -420.2904530 -0.420290E+03  0.310E-02    1.25       0.0  T
   2   -420.2905001 -0.471474E-04  0.277E-02    1.26       1.0  T
   3   -420.2907064 -0.206318E-03  0.103E-02    1.26       1.0  T
   4   -420.2906700  0.364749E-04  0.112E-02    1.26       1.0  T
   5   -420.2907249 -0.548957E-04  0.241E-03    1.26       2.9  T
   6   -420.2907262 -0.136792E-05  0.758E-04    1.26       9.3  T
   7   -420.2907264 -0.204572E-06  0.309E-04    1.26      22.7  T
   8   -420.2907265 -0.489794E-07  0.168E-04    1.26      41.8  T
   9   -420.2907265 -0.126554E-07  0.375E-05    1.26     187.0  T
     SCC iter.                  ...        0 min,  1.499 sec
     gradient                   ...        0 min,  0.499 sec
 * total energy  :  -415.0267434 Eh     change       -0.3013775E-01 Eh
   gradient norm :     0.0571065 Eh/α   predicted    -0.2839508E-01 (  -5.78%)
   displ. norm   :     0.7679685 α      lambda       -0.2856419E-01
   maximum displ.:     0.3542855 α      in ANC's #59, #25, #108, ...

........................................................................
.............................. CYCLE    8 ..............................
........................................................................
   1   -420.3490441 -0.420349E+03  0.264E-02    1.26       0.0  T
   2   -420.3491340 -0.898878E-04  0.187E-02    1.27       1.0  T
   3   -420.3492224 -0.883655E-04  0.924E-03    1.27       1.0  T
   4   -420.3492185  0.388417E-05  0.757E-03    1.27       1.0  T
   5   -420.3492440 -0.255129E-04  0.238E-03    1.27       2.9  T
   6   -420.3492454 -0.138518E-05  0.666E-04    1.27      10.5  T
   7   -420.3492455 -0.148239E-06  0.310E-04    1.27      22.7  T
   8   -420.3492456 -0.579960E-07  0.143E-04    1.27      49.2  T
   9   -420.3492456 -0.946216E-08  0.353E-05    1.27     199.0  T
     SCC iter.                  ...        0 min,  1.498 sec
     gradient                   ...        0 min,  0.502 sec
 * total energy  :  -415.0493306 Eh     change       -0.2258724E-01 Eh
   gradient norm :     0.0438880 Eh/α   predicted    -0.2270532E-01 (   0.52%)
   displ. norm   :     0.8142627 α      lambda       -0.2013476E-01
   maximum displ.:     0.4044678 α      in ANC's #59, #25, #108, ...

........................................................................
.............................. CYCLE    9 ..............................
........................................................................
   1   -420.3982311 -0.420398E+03  0.200E-02    1.26       0.0  T
   2   -420.3982384 -0.726141E-05  0.167E-02    1.27       1.0  T
   3   -420.3983066 -0.682659E-04  0.701E-03    1.27       1.0  T
   4   -420.3982939  0.127519E-04  0.646E-03    1.27       1.1  T
   5   -420.3983153 -0.214681E-04  0.108E-03    1.27       6.5  T
   6   -420.3983157 -0.332069E-06  0.369E-04    1.27      19.0  T
   7   -420.3983157 -0.551327E-07  0.167E-04    1.27      42.0  T
   8   -420.3983157 -0.156066E-07  0.622E-05    1.27     112.8  T
     SCC iter.                  ...        0 min,  1.335 sec
     gradient                   ...        0 min,  0.505 sec
 * total energy  :  -415.0653507 Eh     change       -0.1602006E-01 Eh
   gradient norm :     0.0325098 Eh/α   predicted    -0.1674230E-01 (   4.51%)
   displ. norm   :     0.8701392 α      lambda       -0.1742478E-01
   maximum displ.:     0.4150792 α      in ANC's #59, #25, #43, ...

........................................................................
.............................. CYCLE   10 ..............................
........................................................................
   1   -420.4437344 -0.420444E+03  0.181E-02    1.26       0.0  T
   2   -420.4437567 -0.222811E-04  0.133E-02    1.27       1.0  T
   3   -420.4437992 -0.425846E-04  0.578E-03    1.27       1.2  T
   4   -420.4437940  0.528543E-05  0.502E-03    1.27       1.4  T
   5   -420.4438062 -0.122595E-04  0.106E-03    1.27       6.6  T
   6   -420.4438066 -0.429320E-06  0.456E-04    1.27      15.4  T
   7   -420.4438068 -0.119536E-06  0.166E-04    1.27      42.3  T
   8   -420.4438068 -0.171887E-07  0.579E-05    1.27     121.3  T
     SCC iter.                  ...        0 min,  1.334 sec
     gradient                   ...        0 min,  0.505 sec
 * total energy  :  -415.0754842 Eh     change       -0.1013349E-01 Eh
   gradient norm :     0.0453749 Eh/α   predicted    -0.1530893E-01 (  51.07%)
   displ. norm   :     0.7177895 α      lambda       -0.1552586E-01
   maximum displ.:     0.3824329 α      in ANC's #25, #59, #22, ...

........................................................................
.............................. CYCLE   11 ..............................
........................................................................
   1   -420.4965328 -0.420497E+03  0.168E-02    1.28       0.0  T
   2   -420.4965554 -0.226384E-04  0.131E-02    1.28       1.0  T
   3   -420.4965833 -0.278538E-04  0.572E-03    1.28       1.2  T
   4   -420.4965717  0.115578E-04  0.529E-03    1.28       1.3  T
   5   -420.4965868 -0.151058E-04  0.142E-03    1.28       4.9  T
   6   -420.4965874 -0.627276E-06  0.382E-04    1.28      18.4  T
   7   -420.4965875 -0.582982E-07  0.223E-04    1.28      31.4  T
   8   -420.4965875 -0.368560E-07  0.633E-05    1.28     110.9  T
   9   -420.4965875 -0.168217E-08  0.218E-05    1.28     322.4  T
     SCC iter.                  ...        0 min,  1.501 sec
     gradient                   ...        0 min,  0.503 sec
 * total energy  :  -415.0862366 Eh     change       -0.1075239E-01 Eh
   gradient norm :     0.0338024 Eh/α   predicted    -0.1176259E-01 (   9.40%)
   displ. norm   :     0.7552489 α      lambda       -0.1076027E-01
   maximum displ.:     0.4633224 α      in ANC's #25, #59, #22, ...

........................................................................
.............................. CYCLE   12 ..............................
........................................................................
   1   -420.5291204 -0.420529E+03  0.157E-02    1.28       0.0  T
   2   -420.5291413 -0.209091E-04  0.141E-02    1.28       1.0  T
   3   -420.5291755 -0.342000E-04  0.573E-03    1.28       1.2  T
   4   -420.5291624  0.131266E-04  0.541E-03    1.28       1.3  T
   5   -420.5291768 -0.144229E-04  0.124E-03    1.28       5.7  T
   6   -420.5291773 -0.461261E-06  0.372E-04    1.28      18.9  T
   7   -420.5291773 -0.388897E-07  0.204E-04    1.28      34.4  T
   8   -420.5291773 -0.328212E-07  0.638E-05    1.28     110.1  T
   9   -420.5291773 -0.207064E-08  0.180E-05    1.28     390.1  T
     SCC iter.                  ...        0 min,  1.502 sec
     gradient                   ...        0 min,  0.507 sec
 * total energy  :  -415.0933836 Eh     change       -0.7147084E-02 Eh
   gradient norm :     0.0384237 Eh/α   predicted    -0.8448965E-02 (  18.22%)
   displ. norm   :     0.7462884 α      lambda       -0.1046590E-01
   maximum displ.:     0.4917718 α      in ANC's #25, #59, #22, ...

........................................................................
.............................. CYCLE   13 ..............................
........................................................................
   1   -420.5600738 -0.420560E+03  0.151E-02    1.27       0.0  T
   2   -420.5600942 -0.203638E-04  0.132E-02    1.27       1.0  T
   3   -420.5601233 -0.291279E-04  0.529E-03    1.27       1.3  T
   4   -420.5601129  0.103716E-04  0.472E-03    1.27       1.5  T
   5   -420.5601241 -0.112068E-04  0.106E-03    1.27       6.6  T
   6   -420.5601245 -0.404131E-06  0.387E-04    1.27      18.1  T
   7   -420.5601246 -0.533546E-07  0.161E-04    1.27      43.7  T
   8   -420.5601246 -0.163628E-07  0.641E-05    1.27     109.6  T
     SCC iter.                  ...        0 min,  1.336 sec
     gradient                   ...        0 min,  0.508 sec
 * total energy  :  -415.1006607 Eh     change       -0.7277103E-02 Eh
   gradient norm :     0.0377699 Eh/α   predicted    -0.8147495E-02 (  11.96%)
   displ. norm   :     0.7334833 α      lambda       -0.8771474E-02
   maximum displ.:     0.5088676 α      in ANC's #25, #59, #22, ...

........................................................................
.............................. CYCLE   14 ..............................
........................................................................
   1   -420.5919431 -0.420592E+03  0.192E-02    1.29       0.0  T
   2   -420.5919679 -0.247362E-04  0.190E-02    1.29       1.0  T
   3   -420.5920295 -0.616482E-04  0.756E-03    1.29       1.0  T
   4   -420.5920051  0.244177E-04  0.720E-03    1.29       1.0  T
   5   -420.5920307 -0.256541E-04  0.161E-03    1.29       4.4  T
   6   -420.5920315 -0.729702E-06  0.435E-04    1.29      16.2  T
   7   -420.5920315 -0.720123E-07  0.221E-04    1.29      31.8  T
   8   -420.5920316 -0.356493E-07  0.684E-05    1.29     102.6  T
   9   -420.5920316 -0.254130E-08  0.179E-05    1.29     392.3  T
     SCC iter.                  ...        0 min,  1.498 sec
     gradient                   ...        0 min,  0.516 sec
 * total energy  :  -415.1054763 Eh     change       -0.4815605E-02 Eh
   gradient norm :     0.0502065 Eh/α   predicted    -0.6745282E-02 (  40.07%)
   displ. norm   :     0.6630155 α      lambda       -0.8821066E-02
   maximum displ.:     0.4979371 α      in ANC's #25, #22, #16, ...

........................................................................
.............................. CYCLE   15 ..............................
........................................................................
   1   -420.6190780 -0.420619E+03  0.157E-02    1.28       0.0  T
   2   -420.6190994 -0.213637E-04  0.150E-02    1.28       1.0  T
   3   -420.6191358 -0.363853E-04  0.601E-03    1.28       1.2  T
   4   -420.6191213  0.144436E-04  0.576E-03    1.28       1.2  T
   5   -420.6191367 -0.153496E-04  0.128E-03    1.28       5.5  T
   6   -420.6191371 -0.443554E-06  0.383E-04    1.28      18.3  T
   7   -420.6191372 -0.541513E-07  0.163E-04    1.28      43.2  T
   8   -420.6191372 -0.164296E-07  0.661E-05    1.28     106.1  T
     SCC iter.                  ...        0 min,  1.331 sec
     gradient                   ...        0 min,  0.506 sec
 * total energy  :  -415.1113290 Eh     change       -0.5852621E-02 Eh
   gradient norm :     0.0300077 Eh/α   predicted    -0.6349389E-02 (   8.49%)
   displ. norm   :     0.7445426 α      lambda       -0.6926554E-02
   maximum displ.:     0.5685508 α      in ANC's #25, #22, #16, ...

........................................................................
.............................. CYCLE   16 ..............................
........................................................................
   1   -420.6358063 -0.420636E+03  0.124E-02    1.27       0.0  T
   2   -420.6358165 -0.101321E-04  0.116E-02    1.27       1.0  T
   3   -420.6358412 -0.247260E-04  0.483E-03    1.27       1.5  T
   4   -420.6358311  0.100904E-04  0.472E-03    1.27       1.5  T
   5   -420.6358420 -0.109249E-04  0.102E-03    1.27       6.9  T
   6   -420.6358424 -0.332197E-06  0.268E-04    1.27      26.2  T
   7   -420.6358424 -0.336919E-07  0.113E-04    1.27      62.3  T
   8   -420.6358424 -0.866930E-08  0.382E-05    1.27     183.8  T
     SCC iter.                  ...        0 min,  1.333 sec
     gradient                   ...        0 min,  0.506 sec
 * total energy  :  -415.1148978 Eh     change       -0.3568810E-02 Eh
   gradient norm :     0.0391310 Eh/α   predicted    -0.5383136E-02 (  50.84%)
   displ. norm   :     0.6341637 α      lambda       -0.7686337E-02
   maximum displ.:     0.4969236 α      in ANC's #25, #22, #16, ...

........................................................................
.............................. CYCLE   17 ..............................
........................................................................
   1   -420.6541433 -0.420654E+03  0.133E-02    1.26       0.0  T
   2   -420.6541518 -0.848847E-05  0.120E-02    1.26       1.0  T
   3   -420.6541760 -0.242007E-04  0.505E-03    1.26       1.4  T
   4   -420.6541655  0.104599E-04  0.454E-03    1.26       1.5  T
   5   -420.6541769 -0.114274E-04  0.959E-04    1.26       7.3  T
   6   -420.6541773 -0.320128E-06  0.256E-04    1.26      27.4  T
   7   -420.6541773 -0.304694E-07  0.129E-04    1.26      54.6  T
   8   -420.6541773 -0.997244E-08  0.365E-05    1.26     192.4  T
     SCC iter.                  ...        0 min,  1.335 sec
     gradient                   ...        0 min,  0.507 sec
 * total energy  :  -415.1197352 Eh     change       -0.4837440E-02 Eh
   gradient norm :     0.0266085 Eh/α   predicted    -0.5388758E-02 (  11.40%)
   displ. norm   :     0.6807386 α      lambda       -0.5750297E-02
   maximum displ.:     0.5430389 α      in ANC's #25, #22, #16, ...

........................................................................
.............................. CYCLE   18 ..............................
........................................................................
   1   -420.6734292 -0.420673E+03  0.101E-02    1.26       0.0  T
   2   -420.6734365 -0.733723E-05  0.715E-03    1.25       1.0  T
   3   -420.6734437 -0.720706E-05  0.344E-03    1.26       2.0  T
   4   -420.6734414  0.230167E-05  0.284E-03    1.26       2.5  T
   5   -420.6734455 -0.407111E-05  0.869E-04    1.26       8.1  T
   6   -420.6734458 -0.246154E-06  0.208E-04    1.26      33.7  T
   7   -420.6734458 -0.152410E-07  0.981E-05    1.26      71.6  T
   8   -420.6734458 -0.557310E-08  0.413E-05    1.26     169.8  T
     SCC iter.                  ...        0 min,  1.335 sec
     gradient                   ...        0 min,  0.510 sec
 * total energy  :  -415.1237688 Eh     change       -0.4033607E-02 Eh
   gradient norm :     0.0188730 Eh/α   predicted    -0.4207517E-02 (   4.31%)
   displ. norm   :     0.7628587 α      lambda       -0.5276924E-02
   maximum displ.:     0.6141318 α      in ANC's #25, #22, #16, ...

........................................................................
.............................. CYCLE   19 ..............................
........................................................................
   1   -420.6861040 -0.420686E+03  0.109E-02    1.25       0.0  T
   2   -420.6861112 -0.719794E-05  0.687E-03    1.25       1.0  T
   3   -420.6861143 -0.304380E-05  0.420E-03    1.25       1.7  T
   4   -420.6861141  0.113011E-06  0.316E-03    1.25       2.2  T
   5   -420.6861192 -0.505873E-05  0.702E-04    1.25      10.0  T
   6   -420.6861194 -0.177804E-06  0.203E-04    1.25      34.5  T
   7   -420.6861194 -0.223498E-07  0.654E-05    1.25     107.3  T
   8   -420.6861194 -0.284837E-08  0.267E-05    1.25     262.6  T
     SCC iter.                  ...        0 min,  1.334 sec
     gradient                   ...        0 min,  0.507 sec
 * total energy  :  -415.1276540 Eh     change       -0.3885207E-02 Eh
   gradient norm :     0.0280568 Eh/α   predicted    -0.4173927E-02 (   7.43%)
   displ. norm   :     0.7635780 α      lambda       -0.5382366E-02
   maximum displ.:     0.6110793 α      in ANC's #25, #22, #16, ...

........................................................................
.............................. CYCLE   20 ..............................
........................................................................
   1   -420.7081503 -0.420708E+03  0.154E-02    1.24       0.0  T
   2   -420.7081629 -0.126785E-04  0.766E-03    1.24       1.0  T
   3   -420.7081586  0.430639E-05  0.534E-03    1.24       1.3  T
   4   -420.7081641 -0.544888E-05  0.267E-03    1.24       2.6  T
   5   -420.7081675 -0.340396E-05  0.919E-04    1.24       7.6  T
   6   -420.7081678 -0.334290E-06  0.308E-04    1.24      22.8  T
   7   -420.7081679 -0.417538E-07  0.102E-04    1.24      69.0  T
   8   -420.7081679 -0.535192E-08  0.522E-05    1.24     134.5  T
     SCC iter.                  ...        0 min,  1.333 sec
     gradient                   ...        0 min,  0.507 sec
 * total energy  :  -415.1311028 Eh     change       -0.3448788E-02 Eh
   gradient norm :     0.0298209 Eh/α   predicted    -0.4260285E-02 (  23.53%)
   displ. norm   :     0.7260497 α      lambda       -0.4692981E-02
   maximum displ.:     0.5849590 α      in ANC's #25, #22, #16, ...
 * RMSD in coord.:     0.7540755 α      energy gain  -0.8556219E+00 Eh

generating ANC from model Hessian ...
Using Lindh-Hessian (1995)
 Shifting diagonal of input Hessian by    1.0020236365287982E-002
 Lowest  eigenvalues of input Hessian
    0.010000    0.010005    0.010007    0.010010    0.010012    0.010013
    0.000000    0.000000    0.000000    0.000000    0.000000    0.000000
    0.010033    0.010039    0.010050    0.010086    0.010097    0.010098
 Highest eigenvalues
    3.579225    3.579649    3.666329    3.675019    3.675234    3.675970


........................................................................
.............................. CYCLE   21 ..............................
........................................................................
   1   -420.7102365 -0.420710E+03  0.122E-02    1.23       0.0  T
   2   -420.7102441 -0.760147E-05  0.755E-03    1.23       1.0  T
   3   -420.7102466 -0.242281E-05  0.443E-03    1.23       1.6  T
   4   -420.7102466 -0.356027E-08  0.329E-03    1.23       2.1  T
   5   -420.7102519 -0.536132E-05  0.739E-04    1.23       9.5  T
   6   -420.7102521 -0.157572E-06  0.167E-04    1.23      42.1  T
   7   -420.7102521 -0.133260E-07  0.822E-05    1.23      85.4  T
     SCC iter.                  ...        0 min,  1.169 sec
     gradient                   ...        0 min,  0.508 sec
 * total energy  :  -415.1342654 Eh     change       -0.3162591E-02 Eh
   gradient norm :     0.0285870 Eh/α   predicted     0.0000000E+00 (-100.00%)
   displ. norm   :     0.3273572 α      lambda       -0.2382596E-02
   maximum displ.:     0.2462161 α      in ANC's #29, #28, #14, ...

........................................................................
.............................. CYCLE   22 ..............................
........................................................................
   1   -420.7175984 -0.420718E+03  0.503E-03    1.24       0.0  T
   2   -420.7176008 -0.234684E-05  0.304E-03    1.24       2.3  T
   3   -420.7176014 -0.632956E-06  0.161E-03    1.24       4.4  T
   4   -420.7176013  0.744175E-07  0.116E-03    1.24       6.1  T
   5   -420.7176019 -0.587336E-06  0.398E-04    1.24      17.6  T
   6   -420.7176020 -0.794823E-07  0.121E-04    1.24      58.2  T
   7   -420.7176020 -0.526501E-08  0.540E-05    1.24     130.1  T
     SCC iter.                  ...        0 min,  1.168 sec
     gradient                   ...        0 min,  0.508 sec
 * total energy  :  -415.1358702 Eh     change       -0.1604751E-02 Eh
   gradient norm :     0.0138095 Eh/α   predicted    -0.1319445E-02 ( -17.78%)
   displ. norm   :     0.5844703 α      lambda       -0.3474898E-02
   maximum displ.:     0.4103104 α      in ANC's #29, #28, #14, ...

........................................................................
.............................. CYCLE   23 ..............................
........................................................................
   1   -420.7281387 -0.420728E+03  0.887E-03    1.26       0.0  T
   2   -420.7281468 -0.806960E-05  0.525E-03    1.26       1.3  T
   3   -420.7281484 -0.161761E-05  0.288E-03    1.26       2.4  T
   4   -420.7281482  0.173259E-06  0.211E-03    1.26       3.3  T
   5   -420.7281504 -0.219400E-05  0.725E-04    1.26       9.7  T
   6   -420.7281506 -0.213573E-06  0.224E-04    1.26      31.3  T
   7   -420.7281506 -0.184538E-07  0.954E-05    1.26      73.5  T
   8   -420.7281506 -0.404498E-08  0.416E-05    1.26     168.7  T
     SCC iter.                  ...        0 min,  1.334 sec
     gradient                   ...        0 min,  0.508 sec
 * total energy  :  -415.1374012 Eh     change       -0.1531060E-02 Eh
   gradient norm :     0.0248770 Eh/α   predicted    -0.2330974E-02 (  52.25%)
   displ. norm   :     0.4591979 α      lambda       -0.2778317E-02
   maximum displ.:     0.3289086 α      in ANC's #29, #28, #14, ...

........................................................................
.............................. CYCLE   24 ..............................
........................................................................
   1   -420.7335268 -0.420734E+03  0.416E-03    1.26       0.0  T
   2   -420.7335294 -0.258983E-05  0.239E-03    1.26       2.9  T
   3   -420.7335305 -0.109886E-05  0.129E-03    1.26       5.4  T
   4   -420.7335307 -0.170145E-06  0.888E-04    1.26       7.9  T
   5   -420.7335310 -0.311238E-06  0.323E-04    1.26      21.7  T
   6   -420.7335310 -0.183547E-07  0.143E-04    1.26      49.0  T
   7   -420.7335310 -0.897921E-08  0.542E-05    1.26     129.4  T
     SCC iter.                  ...        0 min,  1.167 sec
     gradient                   ...        0 min,  0.508 sec
 * total energy  :  -415.1394050 Eh     change       -0.2003768E-02 Eh
   gradient norm :     0.0243831 Eh/α   predicted    -0.1682096E-02 ( -16.05%)
   displ. norm   :     0.5361507 α      lambda       -0.2361668E-02
   maximum displ.:     0.3871123 α      in ANC's #29, #28, #14, ...

........................................................................
.............................. CYCLE   25 ..............................
........................................................................
   1   -420.7337774 -0.420734E+03  0.654E-03    1.26       0.0  T
   2   -420.7337807 -0.333165E-05  0.406E-03    1.26       1.7  T
   3   -420.7337828 -0.208627E-05  0.238E-03    1.26       3.0  T
   4   -420.7337835 -0.652022E-06  0.172E-03    1.26       4.1  T
   5   -420.7337847 -0.123895E-05  0.486E-04    1.26      14.4  T
   6   -420.7337847 -0.504577E-07  0.141E-04    1.26      49.7  T
   7   -420.7337847 -0.946608E-08  0.446E-05    1.26     157.5  T
     SCC iter.                  ...        0 min,  1.170 sec
     gradient                   ...        0 min,  0.503 sec
 * total energy  :  -415.1412443 Eh     change       -0.1839280E-02 Eh
   gradient norm :     0.0138226 Eh/α   predicted    -0.1520276E-02 ( -17.34%)
   displ. norm   :     0.6275878 α      lambda       -0.2050453E-02
   maximum displ.:     0.4595459 α      in ANC's #29, #28, #14, ...

........................................................................
.............................. CYCLE   26 ..............................
........................................................................
   1   -420.7364643 -0.420736E+03  0.639E-03    1.25       0.0  T
   2   -420.7364678 -0.345730E-05  0.406E-03    1.25       1.7  T
   3   -420.7364709 -0.313658E-05  0.227E-03    1.26       3.1  T
   4   -420.7364717 -0.829121E-06  0.159E-03    1.25       4.4  T
   5   -420.7364727 -0.966554E-06  0.489E-04    1.25      14.3  T
   6   -420.7364728 -0.540662E-07  0.164E-04    1.25      42.9  T
   7   -420.7364728 -0.120816E-07  0.598E-05    1.25     117.4  T
     SCC iter.                  ...        0 min,  1.170 sec
     gradient                   ...        0 min,  0.508 sec
 * total energy  :  -415.1429151 Eh     change       -0.1670879E-02 Eh
   gradient norm :     0.0176596 Eh/α   predicted    -0.1429029E-02 ( -14.47%)
   displ. norm   :     0.6740985 α      lambda       -0.1936646E-02
   maximum displ.:     0.4765984 α      in ANC's #29, #28, #14, ...

........................................................................
.............................. CYCLE   27 ..............................
........................................................................
   1   -420.7443359 -0.420744E+03  0.523E-03    1.25       0.0  T
   2   -420.7443385 -0.265293E-05  0.322E-03    1.25       2.2  T
   3   -420.7443411 -0.258784E-05  0.186E-03    1.25       3.8  T
   4   -420.7443420 -0.853821E-06  0.109E-03    1.25       6.4  T
   5   -420.7443423 -0.381566E-06  0.376E-04    1.25      18.7  T
   6   -420.7443424 -0.302866E-07  0.165E-04    1.25      42.6  T
   7   -420.7443424 -0.985449E-08  0.728E-05    1.25      96.4  T
     SCC iter.                  ...        0 min,  1.169 sec
     gradient                   ...        0 min,  0.510 sec
 * total energy  :  -415.1444910 Eh     change       -0.1575861E-02 Eh
   gradient norm :     0.0188094 Eh/α   predicted    -0.1408341E-02 ( -10.63%)
   displ. norm   :     0.6986578 α      lambda       -0.1979320E-02
   maximum displ.:     0.5107622 α      in ANC's #29, #28, #14, ...

........................................................................
.............................. CYCLE   28 ..............................
........................................................................
   1   -420.7562864 -0.420756E+03  0.577E-03    1.24       0.0  T
   2   -420.7562891 -0.271469E-05  0.319E-03    1.24       2.2  T
   3   -420.7562909 -0.181844E-05  0.217E-03    1.24       3.2  T
   4   -420.7562920 -0.112555E-05  0.117E-03    1.24       6.0  T
   5   -420.7562926 -0.534984E-06  0.405E-04    1.24      17.3  T
   6   -420.7562926 -0.358913E-07  0.175E-04    1.24      40.1  T
   7   -420.7562926 -0.892584E-08  0.879E-05    1.24      79.8  T
     SCC iter.                  ...        0 min,  1.170 sec
     gradient                   ...        0 min,  0.509 sec
 * total energy  :  -415.1458538 Eh     change       -0.1362843E-02 Eh
   gradient norm :     0.0129841 Eh/α   predicted    -0.1472736E-02 (   8.06%)
   displ. norm   :     0.6818917 α      lambda       -0.1655783E-02
   maximum displ.:     0.4877441 α      in ANC's #29, #28, #14, ...

........................................................................
.............................. CYCLE   29 ..............................
........................................................................
   1   -420.7707928 -0.420771E+03  0.572E-03    1.23       0.0  T
   2   -420.7707953 -0.252743E-05  0.311E-03    1.23       2.3  T
   3   -420.7707964 -0.109100E-05  0.236E-03    1.23       3.0  T
   4   -420.7707983 -0.193276E-05  0.114E-03    1.23       6.2  T
   5   -420.7707987 -0.411194E-06  0.379E-04    1.23      18.5  T
   6   -420.7707988 -0.294638E-07  0.207E-04    1.23      33.9  T
   7   -420.7707988 -0.170229E-07  0.911E-05    1.23      77.0  T
   8   -420.7707988 -0.484448E-08  0.262E-05    1.23     267.4  T
     SCC iter.                  ...        0 min,  1.333 sec
     gradient                   ...        0 min,  0.510 sec
 * total energy  :  -415.1470582 Eh     change       -0.1204351E-02 Eh
   gradient norm :     0.0082920 Eh/α   predicted    -0.1212847E-02 (   0.71%)
   displ. norm   :     0.7082219 α      lambda       -0.1092511E-02
   maximum displ.:     0.5096265 α      in ANC's #29, #28, #14, ...

........................................................................
.............................. CYCLE   30 ..............................
........................................................................
   1   -420.7798491 -0.420780E+03  0.604E-03    1.23       0.0  T
   2   -420.7798534 -0.431982E-05  0.355E-03    1.23       2.0  T
   3   -420.7798567 -0.330180E-05  0.223E-03    1.23       3.1  T
   4   -420.7798585 -0.184237E-05  0.116E-03    1.23       6.1  T
   5   -420.7798589 -0.330508E-06  0.404E-04    1.23      17.4  T
   6   -420.7798589 -0.236607E-07  0.235E-04    1.23      29.9  T
   7   -420.7798589 -0.234209E-07  0.925E-05    1.23      75.9  T
   8   -420.7798589 -0.468106E-08  0.332E-05    1.23     211.7  T
     SCC iter.                  ...        0 min,  1.335 sec
     gradient                   ...        0 min,  0.510 sec
 * total energy  :  -415.1479093 Eh     change       -0.8510681E-03 Eh
   gradient norm :     0.0098660 Eh/α   predicted    -0.8202516E-03 (  -3.62%)
   displ. norm   :     0.6304030 α      lambda       -0.7128645E-03
   maximum displ.:     0.4465208 α      in ANC's #29, #14, #28, ...

........................................................................
.............................. CYCLE   31 ..............................
........................................................................
   1   -420.7917794 -0.420792E+03  0.508E-03    1.24       0.0  T
   2   -420.7917826 -0.326013E-05  0.286E-03    1.24       2.5  T
   3   -420.7917845 -0.187471E-05  0.189E-03    1.24       3.7  T
   4   -420.7917856 -0.115062E-05  0.965E-04    1.24       7.3  T
   5   -420.7917859 -0.284055E-06  0.339E-04    1.24      20.7  T
   6   -420.7917859 -0.129435E-07  0.198E-04    1.24      35.4  T
   7   -420.7917860 -0.149601E-07  0.841E-05    1.24      83.5  T
     SCC iter.                  ...        0 min,  1.169 sec
     gradient                   ...        0 min,  0.511 sec
 * total energy  :  -415.1484528 Eh     change       -0.5435327E-03 Eh
   gradient norm :     0.0063991 Eh/α   predicted    -0.4980831E-03 (  -8.36%)
   displ. norm   :     0.5112263 α      lambda       -0.3796398E-03
   maximum displ.:     0.3480394 α      in ANC's #29, #14, #28, ...

........................................................................
.............................. CYCLE   32 ..............................
........................................................................
   1   -420.8006742 -0.420801E+03  0.426E-03    1.24       0.0  T
   2   -420.8006771 -0.287249E-05  0.228E-03    1.24       3.1  T
   3   -420.8006784 -0.126622E-05  0.147E-03    1.24       4.8  T
   4   -420.8006792 -0.817928E-06  0.717E-04    1.24       9.8  T
   5   -420.8006793 -0.135012E-06  0.263E-04    1.24      26.7  T
   6   -420.8006793 -0.450427E-08  0.160E-04    1.24      43.8  T
   7   -420.8006793 -0.108358E-07  0.630E-05    1.24     111.5  T
     SCC iter.                  ...        0 min,  1.169 sec
     gradient                   ...        0 min,  0.509 sec
 * total energy  :  -415.1487390 Eh     change       -0.2861862E-03 Eh
   gradient norm :     0.0057663 Eh/α   predicted    -0.2394328E-03 ( -16.34%)
   displ. norm   :     0.3708611 α      lambda       -0.2297318E-03
   maximum displ.:     0.2222112 α      in ANC's #29, #14, #28, ...

........................................................................
.............................. CYCLE   33 ..............................
........................................................................
   1   -420.8070703 -0.420807E+03  0.376E-03    1.24       0.0  T
   2   -420.8070729 -0.265934E-05  0.166E-03    1.24       4.2  T
   3   -420.8070734 -0.450268E-06  0.119E-03    1.24       5.9  T
   4   -420.8070739 -0.554373E-06  0.558E-04    1.24      12.6  T
   5   -420.8070740 -0.917865E-07  0.207E-04    1.24      33.8  T
   6   -420.8070740 -0.305687E-08  0.114E-04    1.24      61.6  T
   7   -420.8070740 -0.567468E-08  0.423E-05    1.24     165.8  T
     SCC iter.                  ...        0 min,  1.169 sec
     gradient                   ...        0 min,  0.515 sec
 * total energy  :  -415.1489179 Eh     change       -0.1788651E-03 Eh
   gradient norm :     0.0042120 Eh/α   predicted    -0.1306654E-03 ( -26.95%)
   displ. norm   :     0.3317504 α      lambda       -0.2089592E-03
   maximum displ.:     0.2204197 α      in ANC's #14, #29, #18, ...

........................................................................
.............................. CYCLE   34 ..............................
........................................................................
   1   -420.8100599 -0.420810E+03  0.383E-03    1.24       0.0  T
   2   -420.8100634 -0.357099E-05  0.168E-03    1.24       4.2  T
   3   -420.8100641 -0.632591E-06  0.108E-03    1.24       6.5  T
   4   -420.8100646 -0.542596E-06  0.469E-04    1.24      15.0  T
   5   -420.8100647 -0.381440E-07  0.176E-04    1.24      39.9  T
   6   -420.8100647  0.897842E-09  0.106E-04    1.24      66.1  T
     SCC iter.                  ...        0 min,  1.006 sec
     gradient                   ...        0 min,  0.514 sec
 * total energy  :  -415.1490906 Eh     change       -0.1727440E-03 Eh
   gradient norm :     0.0047318 Eh/α   predicted    -0.1159793E-03 ( -32.86%)
   displ. norm   :     0.3958518 α      lambda       -0.3125573E-03
   maximum displ.:     0.2990994 α      in ANC's #14, #18, #25, ...

........................................................................
.............................. CYCLE   35 ..............................
........................................................................
   1   -420.8121853 -0.420812E+03  0.581E-03    1.24       0.0  T
   2   -420.8121937 -0.840001E-05  0.198E-03    1.24       3.5  T
   3   -420.8121943 -0.616690E-06  0.137E-03    1.24       5.1  T
   4   -420.8121951 -0.777339E-06  0.642E-04    1.24      10.9  T
   5   -420.8121952 -0.137251E-06  0.233E-04    1.24      30.1  T
   6   -420.8121952 -0.231336E-08  0.931E-05    1.24      75.4  T
   7   -420.8121952 -0.465116E-08  0.402E-05    1.24     174.6  T
     SCC iter.                  ...        0 min,  1.172 sec
     gradient                   ...        0 min,  0.514 sec
 * total energy  :  -415.1493434 Eh     change       -0.2527666E-03 Eh
   gradient norm :     0.0047176 Eh/α   predicted    -0.1807680E-03 ( -28.48%)
   displ. norm   :     0.5006673 α      lambda       -0.3636187E-03
   maximum displ.:     0.3761337 α      in ANC's #14, #18, #28, ...

........................................................................
.............................. CYCLE   36 ..............................
........................................................................
   1   -420.8083560 -0.420808E+03  0.650E-03    1.23       0.0  T
   2   -420.8083677 -0.117066E-04  0.279E-03    1.23       2.5  T
   3   -420.8083694 -0.168314E-05  0.167E-03    1.23       4.2  T
   4   -420.8083706 -0.117342E-05  0.872E-04    1.23       8.0  T
   5   -420.8083707 -0.136776E-06  0.259E-04    1.23      27.1  T
   6   -420.8083707 -0.805528E-09  0.142E-04    1.23      49.3  T
   7   -420.8083708 -0.137967E-07  0.472E-05    1.23     148.6  T
     SCC iter.                  ...        0 min,  1.171 sec
     gradient                   ...        0 min,  0.517 sec
 * total energy  :  -415.1496167 Eh     change       -0.2733865E-03 Eh
   gradient norm :     0.0074115 Eh/α   predicted    -0.2273852E-03 ( -16.83%)
   displ. norm   :     0.4928722 α      lambda       -0.3244650E-03
   maximum displ.:     0.3547688 α      in ANC's #14, #28, #18, ...

........................................................................
.............................. CYCLE   37 ..............................
........................................................................
   1   -420.8048356 -0.420805E+03  0.586E-03    1.23       0.0  T
   2   -420.8048441 -0.851327E-05  0.229E-03    1.23       3.1  T
   3   -420.8048449 -0.847690E-06  0.149E-03    1.23       4.7  T
   4   -420.8048455 -0.536493E-06  0.872E-04    1.23       8.1  T
   5   -420.8048457 -0.267665E-06  0.293E-04    1.23      23.9  T
   6   -420.8048458 -0.121196E-07  0.134E-04    1.23      52.3  T
   7   -420.8048458 -0.944704E-08  0.456E-05    1.23     153.8  T
     SCC iter.                  ...        0 min,  1.171 sec
     gradient                   ...        0 min,  0.514 sec
 * total energy  :  -415.1498540 Eh     change       -0.2372264E-03 Eh
   gradient norm :     0.0068582 Eh/α   predicted    -0.2016447E-03 ( -15.00%)
   displ. norm   :     0.4011291 α      lambda       -0.2433652E-03
   maximum displ.:     0.2972260 α      in ANC's #14, #28, #29, ...

........................................................................
.............................. CYCLE   38 ..............................
........................................................................
   1   -420.8015448 -0.420802E+03  0.439E-03    1.23       0.0  T
   2   -420.8015486 -0.376817E-05  0.214E-03    1.23       3.3  T
   3   -420.8015496 -0.996469E-06  0.139E-03    1.23       5.0  T
   4   -420.8015504 -0.818275E-06  0.697E-04    1.23      10.1  T
   5   -420.8015505 -0.114608E-06  0.224E-04    1.23      31.4  T
   6   -420.8015505 -0.743040E-08  0.129E-04    1.23      54.3  T
   7   -420.8015505 -0.992935E-08  0.403E-05    1.23     174.0  T
     SCC iter.                  ...        0 min,  1.170 sec
     gradient                   ...        0 min,  0.514 sec
 * total energy  :  -415.1500292 Eh     change       -0.1752312E-03 Eh
   gradient norm :     0.0083162 Eh/α   predicted    -0.1412638E-03 ( -19.38%)
   displ. norm   :     0.3652383 α      lambda       -0.2696833E-03
   maximum displ.:     0.2582809 α      in ANC's #14, #28, #29, ...

........................................................................
.............................. CYCLE   39 ..............................
........................................................................
   1   -420.8010915 -0.420801E+03  0.361E-03    1.23       0.0  T
   2   -420.8010930 -0.148809E-05  0.230E-03    1.23       3.1  T
   3   -420.8010948 -0.179564E-05  0.142E-03    1.23       4.9  T
   4   -420.8010956 -0.809194E-06  0.616E-04    1.23      11.4  T
   5   -420.8010956 -0.316697E-07  0.253E-04    1.23      27.8  T
   6   -420.8010956 -0.170000E-07  0.140E-04    1.23      50.0  T
   7   -420.8010956 -0.121136E-07  0.499E-05    1.23     140.8  T
     SCC iter.                  ...        0 min,  1.170 sec
     gradient                   ...        0 min,  0.513 sec
 * total energy  :  -415.1502306 Eh     change       -0.2014385E-03 Eh
   gradient norm :     0.0062871 Eh/α   predicted    -0.1528308E-03 ( -24.13%)
   displ. norm   :     0.3698100 α      lambda       -0.2282458E-03
   maximum displ.:     0.2787916 α      in ANC's #14, #29, #28, ...

........................................................................
.............................. CYCLE   40 ..............................
........................................................................
   1   -420.7993522 -0.420799E+03  0.404E-03    1.23       0.0  T
   2   -420.7993549 -0.264727E-05  0.237E-03    1.23       3.0  T
   3   -420.7993570 -0.209462E-05  0.144E-03    1.23       4.9  T
   4   -420.7993581 -0.116827E-05  0.479E-04    1.23      14.6  T
   5   -420.7993581 -0.447233E-08  0.240E-04    1.23      29.2  T
   6   -420.7993581 -0.147293E-07  0.143E-04    1.23      49.1  T
   7   -420.7993582 -0.127467E-07  0.467E-05    1.23     150.3  T
     SCC iter.                  ...        0 min,  1.171 sec
     gradient                   ...        0 min,  0.512 sec
 * total energy  :  -415.1504036 Eh     change       -0.1729873E-03 Eh
   gradient norm :     0.0064934 Eh/α   predicted    -0.1297312E-03 ( -25.01%)
   displ. norm   :     0.3256914 α      lambda       -0.2101178E-03
   maximum displ.:     0.2474528 α      in ANC's #14, #29, #28, ...

........................................................................
.............................. CYCLE   41 ..............................
........................................................................
   1   -420.7990729 -0.420799E+03  0.364E-03    1.23       0.0  T
   2   -420.7990754 -0.254827E-05  0.217E-03    1.23       3.2  T
   3   -420.7990769 -0.141593E-05  0.140E-03    1.23       5.0  T
   4   -420.7990777 -0.880438E-06  0.595E-04    1.23      11.8  T
   5   -420.7990777 -0.543383E-08  0.274E-04    1.23      25.6  T
   6   -420.7990778 -0.243364E-07  0.139E-04    1.23      50.5  T
   7   -420.7990778 -0.120355E-07  0.495E-05    1.23     141.9  T
     SCC iter.                  ...        0 min,  1.171 sec
     gradient                   ...        0 min,  0.512 sec
 * total energy  :  -415.1505495 Eh     change       -0.1458699E-03 Eh
   gradient norm :     0.0063271 Eh/α   predicted    -0.1162048E-03 ( -20.34%)
   displ. norm   :     0.3336327 α      lambda       -0.1956337E-03
   maximum displ.:     0.2708423 α      in ANC's #14, #29, #25, ...

........................................................................
.............................. CYCLE   42 ..............................
........................................................................
   1   -420.7973776 -0.420797E+03  0.445E-03    1.23       0.0  T
   2   -420.7973804 -0.284576E-05  0.207E-03    1.23       3.4  T
   3   -420.7973804  0.159736E-08  0.154E-03    1.23       4.5  T
   4   -420.7973813 -0.871896E-06  0.927E-04    1.23       7.6  T
   5   -420.7973816 -0.313128E-06  0.243E-04    1.23      28.8  T
   6   -420.7973816 -0.105024E-07  0.133E-04    1.23      52.6  T
   7   -420.7973816 -0.112319E-07  0.409E-05    1.23     171.8  T
     SCC iter.                  ...        0 min,  1.171 sec
     gradient                   ...        0 min,  0.512 sec
 * total energy  :  -415.1506532 Eh     change       -0.1037174E-03 Eh
   gradient norm :     0.0095874 Eh/α   predicted    -0.1087063E-03 (   4.81%)
   displ. norm   :     0.2653679 α      lambda       -0.1947069E-03
   maximum displ.:     0.2212222 α      in ANC's #14, #25, #29, ...
 * RMSD in coord.:     0.5680947 α      energy gain  -0.1955040E-01 Eh

generating ANC from model Hessian ...
Using Lindh-Hessian (1995)
 Shifting diagonal of input Hessian by    1.0020152675621051E-002
 Lowest  eigenvalues of input Hessian
    0.010000    0.010006    0.010009    0.010010    0.010011    0.010012
    0.000000    0.000000    0.000000    0.000000    0.000000    0.000000
    0.010031    0.010047    0.010052    0.010092    0.010096    0.010111
 Highest eigenvalues
    3.579736    3.581230    3.596899    3.603312    3.604626    3.607454


........................................................................
.............................. CYCLE   43 ..............................
........................................................................
   1   -420.7965574 -0.420797E+03  0.431E-03    1.23       0.0  T
   2   -420.7965604 -0.295665E-05  0.193E-03    1.23       3.6  T
   3   -420.7965604  0.132393E-07  0.130E-03    1.23       5.4  T
   4   -420.7965605 -0.147703E-06  0.101E-03    1.23       6.9  T
   5   -420.7965610 -0.476951E-06  0.211E-04    1.23      33.3  T
   6   -420.7965610 -0.110707E-07  0.812E-05    1.23      86.4  T
   7   -420.7965610 -0.383329E-08  0.355E-05    1.23     197.5  T
     SCC iter.                  ...        0 min,  1.169 sec
     gradient                   ...        0 min,  0.513 sec
 * total energy  :  -415.1507590 Eh     change       -0.1057356E-03 Eh
   gradient norm :     0.0088036 Eh/α   predicted     0.0000000E+00 (-100.00%)
   displ. norm   :     0.0569119 α      lambda       -0.5308612E-04
   maximum displ.:     0.0193687 α      in ANC's #40, #27, #49, ...

........................................................................
.............................. CYCLE   44 ..............................
........................................................................
   1   -420.7984674 -0.420798E+03  0.282E-03    1.23       0.0  T
   2   -420.7984693 -0.186163E-05  0.975E-04    1.23       7.2  T
   3   -420.7984693 -0.622576E-07  0.555E-04    1.23      12.6  T
   4   -420.7984693  0.437020E-07  0.527E-04    1.23      13.3  T
   5   -420.7984694 -0.131722E-06  0.111E-04    1.23      63.5  T
   6   -420.7984694 -0.203192E-08  0.419E-05    1.23     167.3  T
     SCC iter.                  ...        0 min,  1.003 sec
     gradient                   ...        0 min,  0.512 sec
 * total energy  :  -415.1508154 Eh     change       -0.5649210E-04 Eh
   gradient norm :     0.0046073 Eh/α   predicted    -0.5848722E-04 (   3.53%)
   displ. norm   :     0.1065116 α      lambda       -0.1721324E-03
   maximum displ.:     0.0300522 α      in ANC's #14, #50, #69, ...

........................................................................
.............................. CYCLE   45 ..............................
........................................................................
   1   -420.8017797 -0.420802E+03  0.570E-03    1.23       0.0  T
   2   -420.8017879 -0.812540E-05  0.190E-03    1.23       3.7  T
   3   -420.8017882 -0.311605E-06  0.105E-03    1.23       6.7  T
   4   -420.8017880  0.147458E-06  0.993E-04    1.23       7.1  T
   5   -420.8017885 -0.458787E-06  0.222E-04    1.23      31.6  T
   6   -420.8017885 -0.821302E-08  0.790E-05    1.23      88.9  T
   7   -420.8017885 -0.380601E-08  0.349E-05    1.23     201.4  T
     SCC iter.                  ...        0 min,  1.169 sec
     gradient                   ...        0 min,  0.511 sec
 * total energy  :  -415.1508382 Eh     change       -0.2279442E-04 Eh
   gradient norm :     0.0073497 Eh/α   predicted    -0.8705675E-04 ( 281.92%)
   displ. norm   :     0.0581283 α      lambda       -0.1319979E-03
   maximum displ.:     0.0233585 α      in ANC's #33, #31, #27, ...

........................................................................
.............................. CYCLE   46 ..............................
........................................................................
   1   -420.8011677 -0.420801E+03  0.953E-04    1.23       0.0  T
   2   -420.8011679 -0.213390E-06  0.415E-04    1.23      16.9  T
   3   -420.8011679 -0.163762E-07  0.244E-04    1.23      28.7  T
   4   -420.8011679 -0.376593E-08  0.195E-04    1.23      35.9  T
   5   -420.8011680 -0.130815E-07  0.598E-05    1.23     117.3  T
     SCC iter.                  ...        0 min,  0.838 sec
     gradient                   ...        0 min,  0.512 sec
 * total energy  :  -415.1509006 Eh     change       -0.6239032E-04 Eh
   gradient norm :     0.0048664 Eh/α   predicted    -0.6622338E-04 (   6.14%)
   displ. norm   :     0.0523574 α      lambda       -0.6965992E-04
   maximum displ.:     0.0173003 α      in ANC's #38, #40, #14, ...

........................................................................
.............................. CYCLE   47 ..............................
........................................................................
   1   -420.7995948 -0.420800E+03  0.130E-03    1.23       0.0  T
   2   -420.7995950 -0.109425E-06  0.713E-04    1.23       9.8  T
   3   -420.7995949  0.354431E-07  0.499E-04    1.23      14.1  T
   4   -420.7995950 -0.559521E-07  0.312E-04    1.23      22.5  T
   5   -420.7995950 -0.415346E-07  0.766E-05    1.23      91.6  T
   6   -420.7995950 -0.171752E-08  0.213E-05    1.23     330.2  T
     SCC iter.                  ...        0 min,  1.005 sec
     gradient                   ...        0 min,  0.514 sec
 * total energy  :  -415.1509189 Eh     change       -0.1830881E-04 Eh
   gradient norm :     0.0023127 Eh/α   predicted    -0.3492685E-04 (  90.77%)
   displ. norm   :     0.0591547 α      lambda       -0.5551047E-04
   maximum displ.:     0.0232907 α      in ANC's #14, #17, #38, ...

........................................................................
.............................. CYCLE   48 ..............................
........................................................................
   1   -420.7995046 -0.420800E+03  0.116E-03    1.23       0.0  T
   2   -420.7995049 -0.360755E-06  0.420E-04    1.23      16.7  T
   3   -420.7995050 -0.279924E-07  0.250E-04    1.23      28.1  T
   4   -420.7995050 -0.182000E-07  0.162E-04    1.23      43.3  T
   5   -420.7995050 -0.779420E-08  0.426E-05    1.23     164.8  T
     SCC iter.                  ...        0 min,  0.839 sec
     gradient                   ...        0 min,  0.510 sec
 * total energy  :  -415.1509535 Eh     change       -0.3457732E-04 Eh
   gradient norm :     0.0023362 Eh/α   predicted    -0.2785443E-04 ( -19.44%)
   displ. norm   :     0.1007045 α      lambda       -0.4303583E-04
   maximum displ.:     0.0436707 α      in ANC's #14, #17, #31, ...

........................................................................
.............................. CYCLE   49 ..............................
........................................................................
   1   -420.8003278 -0.420800E+03  0.220E-03    1.23       0.0  T
   2   -420.8003291 -0.135035E-05  0.690E-04    1.23      10.2  T
   3   -420.8003292 -0.913572E-07  0.384E-04    1.23      18.3  T
   4   -420.8003293 -0.300327E-07  0.254E-04    1.23      27.6  T
   5   -420.8003293 -0.236202E-07  0.791E-05    1.23      88.8  T
   6   -420.8003293 -0.136032E-08  0.174E-05    1.23     403.1  T
     SCC iter.                  ...        0 min,  1.004 sec
     gradient                   ...        0 min,  0.513 sec
 * total energy  :  -415.1509817 Eh     change       -0.2820298E-04 Eh
   gradient norm :     0.0024395 Eh/α   predicted    -0.2174109E-04 ( -22.91%)
   displ. norm   :     0.1548050 α      lambda       -0.4901794E-04
   maximum displ.:     0.0711998 α      in ANC's #14, #17, #31, ...

........................................................................
.............................. CYCLE   50 ..............................
........................................................................
   1   -420.8010957 -0.420801E+03  0.241E-03    1.23       0.0  T
   2   -420.8010973 -0.158184E-05  0.850E-04    1.23       8.3  T
   3   -420.8010975 -0.159975E-06  0.498E-04    1.23      14.1  T
   4   -420.8010976 -0.101640E-06  0.249E-04    1.23      28.2  T
   5   -420.8010976 -0.157049E-07  0.780E-05    1.23      90.0  T
   6   -420.8010976 -0.660918E-09  0.238E-05    1.23     295.5  T
     SCC iter.                  ...        0 min,  1.005 sec
     gradient                   ...        0 min,  0.513 sec
 * total energy  :  -415.1510132 Eh     change       -0.3143180E-04 Eh
   gradient norm :     0.0028992 Eh/α   predicted    -0.2509742E-04 ( -20.15%)
   displ. norm   :     0.2688133 α      lambda       -0.8512348E-04
   maximum displ.:     0.1279781 α      in ANC's #14, #17, #31, ...

........................................................................
.............................. CYCLE   51 ..............................
........................................................................
   1   -420.8016212 -0.420802E+03  0.307E-03    1.23       0.0  T
   2   -420.8016237 -0.250207E-05  0.130E-03    1.23       5.4  T
   3   -420.8016241 -0.452803E-06  0.735E-04    1.23       9.6  T
   4   -420.8016244 -0.290915E-06  0.305E-04    1.23      23.0  T
   5   -420.8016244 -0.150120E-07  0.111E-04    1.23      63.1  T
   6   -420.8016244  0.275918E-09  0.628E-05    1.23     111.8  T
     SCC iter.                  ...        0 min,  1.006 sec
     gradient                   ...        0 min,  0.514 sec
 * total energy  :  -415.1510399 Eh     change       -0.2670229E-04 Eh
   gradient norm :     0.0038721 Eh/α   predicted    -0.4563845E-04 (  70.92%)
   displ. norm   :     0.1483076 α      lambda       -0.9449315E-04
   maximum displ.:     0.0740614 α      in ANC's #14, #17, #25, ...

........................................................................
.............................. CYCLE   52 ..............................
........................................................................
   1   -420.8023177 -0.420802E+03  0.168E-03    1.23       0.0  T
   2   -420.8023185 -0.728367E-06  0.786E-04    1.23       8.9  T
   3   -420.8023186 -0.143416E-06  0.514E-04    1.23      13.6  T
   4   -420.8023188 -0.151940E-06  0.191E-04    1.23      36.7  T
   5   -420.8023188 -0.515143E-08  0.864E-05    1.23      81.2  T
     SCC iter.                  ...        0 min,  0.838 sec
     gradient                   ...        0 min,  0.512 sec
 * total energy  :  -415.1511005 Eh     change       -0.6067764E-04 Eh
   gradient norm :     0.0033847 Eh/α   predicted    -0.4828614E-04 ( -20.42%)
   displ. norm   :     0.1201820 α      lambda       -0.6118595E-04
   maximum displ.:     0.0618612 α      in ANC's #14, #17, #25, ...

........................................................................
.............................. CYCLE   53 ..............................
........................................................................
   1   -420.8038331 -0.420804E+03  0.180E-03    1.23       0.0  T
   2   -420.8038337 -0.641049E-06  0.887E-04    1.23       7.9  T
   3   -420.8038338 -0.103295E-06  0.660E-04    1.23      10.6  T
   4   -420.8038340 -0.201600E-06  0.298E-04    1.23      23.5  T
   5   -420.8038341 -0.154749E-07  0.108E-04    1.23      64.9  T
   6   -420.8038341 -0.327088E-08  0.633E-05    1.23     110.8  T
     SCC iter.                  ...        0 min,  1.006 sec
     gradient                   ...        0 min,  0.515 sec
 * total energy  :  -415.1511426 Eh     change       -0.4205694E-04 Eh
   gradient norm :     0.0026039 Eh/α   predicted    -0.3103502E-04 ( -26.21%)
   displ. norm   :     0.2110350 α      lambda       -0.4936261E-04
   maximum displ.:     0.1133196 α      in ANC's #14, #17, #25, ...

........................................................................
.............................. CYCLE   54 ..............................
........................................................................
   1   -420.8037007 -0.420804E+03  0.210E-03    1.23       0.0  T
   2   -420.8037016 -0.972070E-06  0.109E-03    1.23       6.4  T
   3   -420.8037020 -0.339553E-06  0.637E-04    1.23      11.0  T
   4   -420.8037021 -0.182774E-06  0.324E-04    1.23      21.6  T
   5   -420.8037022 -0.308567E-07  0.112E-04    1.23      62.8  T
   6   -420.8037022 -0.111083E-08  0.720E-05    1.23      97.5  T
     SCC iter.                  ...        0 min,  1.005 sec
     gradient                   ...        0 min,  0.513 sec
 * total energy  :  -415.1511791 Eh     change       -0.3652738E-04 Eh
   gradient norm :     0.0026606 Eh/α   predicted    -0.2578393E-04 ( -29.41%)
   displ. norm   :     0.2009302 α      lambda       -0.4840137E-04
   maximum displ.:     0.1103873 α      in ANC's #14, #17, #25, ...

........................................................................
.............................. CYCLE   55 ..............................
........................................................................
   1   -420.8034448 -0.420803E+03  0.237E-03    1.23       0.0  T
   2   -420.8034465 -0.161905E-05  0.116E-03    1.23       6.1  T
   3   -420.8034468 -0.341992E-06  0.583E-04    1.23      12.0  T
   4   -420.8034469 -0.661573E-07  0.406E-04    1.23      17.3  T
   5   -420.8034469 -0.656743E-07  0.130E-04    1.23      54.1  T
   6   -420.8034469 -0.164101E-08  0.652E-05    1.23     107.6  T
     SCC iter.                  ...        0 min,  1.004 sec
     gradient                   ...        0 min,  0.516 sec
 * total energy  :  -415.1512145 Eh     change       -0.3537067E-04 Eh
   gradient norm :     0.0023813 Eh/α   predicted    -0.2518048E-04 ( -28.81%)
   displ. norm   :     0.1864195 α      lambda       -0.4290002E-04
   maximum displ.:     0.1031662 α      in ANC's #14, #17, #25, ...

........................................................................
.............................. CYCLE   56 ..............................
........................................................................
   1   -420.8027298 -0.420803E+03  0.302E-03    1.23       0.0  T
   2   -420.8027328 -0.297555E-05  0.118E-03    1.23       6.0  T
   3   -420.8027331 -0.333889E-06  0.530E-04    1.23      13.3  T
   4   -420.8027331 -0.331810E-07  0.397E-04    1.23      17.7  T
   5   -420.8027332 -0.589737E-07  0.156E-04    1.23      45.1  T
   6   -420.8027332 -0.469959E-08  0.574E-05    1.23     122.2  T
     SCC iter.                  ...        0 min,  1.003 sec
     gradient                   ...        0 min,  0.510 sec
 * total energy  :  -415.1512467 Eh     change       -0.3217330E-04 Eh
   gradient norm :     0.0029925 Eh/α   predicted    -0.2219599E-04 ( -31.01%)
   displ. norm   :     0.1811987 α      lambda       -0.4757175E-04
   maximum displ.:     0.0964655 α      in ANC's #14, #25, #17, ...

........................................................................
.............................. CYCLE   57 ..............................
........................................................................
   1   -420.8020587 -0.420802E+03  0.365E-03    1.22       0.0  T
   2   -420.8020630 -0.422806E-05  0.121E-03    1.22       5.8  T
   3   -420.8020633 -0.355478E-06  0.544E-04    1.22      12.9  T
   4   -420.8020634 -0.714077E-07  0.390E-04    1.22      18.0  T
[...]
   172   6 C    3.987 --   173 C    1.449   171 C    1.391   197 H    0.971
                           179 C    0.106
   173   6 C    3.989 --   172 C    1.449   174 C    1.408   198 H    0.966
                           180 C    0.106
   174   6 C    3.931 --   173 C    1.408   179 C    1.407   175 S    0.754
   175  16 S    5.267 --   178 O    1.727   176 O    1.714   177 O    1.014
                           174 C    0.754
   176   8 O    2.073 --   175 S    1.714   178 O    0.139
   177   8 O    2.088 --   175 S    1.014   199 H    0.828
   178   8 O    2.085 --   175 S    1.727   176 O    0.139
   179   6 C    3.989 --   180 C    1.450   174 C    1.407   200 H    0.967
                           172 C    0.106
   180   6 C    3.987 --   179 C    1.450   171 C    1.390   201 H    0.971
                           173 C    0.106
   181   6 C    3.914 --   170 C    1.324   185 N    1.206   182 C    1.184
   182   6 C    3.960 --   183 C    1.635   181 C    1.184   202 H    0.973
   183   6 C    3.960 --   182 C    1.635   184 C    1.192   203 H    0.973
   184   6 C    3.903 --   142 C    1.263   185 N    1.237   183 C    1.192
   185   7 N    3.400 --   184 C    1.237   181 C    1.206   141 Ni   0.661
   186   1 H    1.001 --   144 C    0.973
   187   1 H    1.003 --   145 C    0.973
   188   1 H    1.003 --   150 C    0.971
   189   1 H    0.999 --   151 C    0.966
   190   1 H    0.854 --   155 O    0.827
   191   1 H    0.999 --   157 C    0.967
   192   1 H    1.003 --   158 C    0.971
   193   1 H    1.003 --   160 C    0.973
   194   1 H    1.001 --   161 C    0.973
   195   1 H    1.001 --   166 C    0.973
   196   1 H    1.003 --   167 C    0.973
   197   1 H    1.003 --   172 C    0.971
   198   1 H    0.999 --   173 C    0.966
   199   1 H    0.854 --   177 O    0.828
   200   1 H    0.999 --   179 C    0.967
   201   1 H    1.003 --   180 C    0.971
   202   1 H    1.003 --   182 C    0.973
   203   1 H    1.001 --   183 C    0.973
 ---------------------------------------------------------------------------

Topologies differ in total number of bonds
Writing topology from bond orders to xtbtopo.mol

 dipole moment from electron density (au)
     X       Y       Z   
  -1.5600  -1.3846  -0.2715  total (Debye):    5.346

           -------------------------------------------------
          |                Geometry Summary                 |
           -------------------------------------------------

      molecular mass/u    :     2178.1426521
   center of mass at/Å    :       47.4657428      -0.0016498      -0.0126229
  moments of inertia/u·Å² :        0.7017606E+05   0.3827341E+06   0.4135248E+06
rotational constants/cm⁻¹ :        0.2402191E-03   0.4404529E-04   0.4076571E-04

 * 206 selected distances

     #   Z          #   Z                                           value/Å
     2   6 C        3   6 C                                       1.3794599
     3   6 C        4   6 C                                       1.4312985
     4   6 C        5   6 C                                       1.3534200
     5   6 C        6   6 C                                       1.4341198
     3   6 C        7   7 N                                       1.3725188
     6   6 C        7   7 N                                       1.3721652
     6   6 C        8   6 C                                       1.3887779
     9   6 C       10   6 C                                       1.3969359
    10   6 C       11   6 C                                       1.3852299
    11   6 C       12   6 C                                       1.3854583
    12   6 C       13  16 S                                       1.7532194
    13  16 S       14   8 O                                       1.4333258
    13  16 S       15   8 O                                       1.6240011
    13  16 S       16   8 O                                       1.4332066
    12   6 C       17   6 C                                       1.3854001
     9   6 C       18   6 C                                       1.3971095
    17   6 C       18   6 C                                       1.3850505
     8   6 C       19   6 C                                       1.3890938
    19   6 C       20   6 C                                       1.4317442
    20   6 C       21   6 C                                       1.3546324
    19   6 C       22   7 N                                       1.3757308
    21   6 C       23   6 C                                       1.4282920
    22   7 N       23   6 C                                       1.3685017
    23   6 C       24   6 C                                       1.3972121
    24   6 C       25   6 C                                       1.3972602
    25   6 C       26   6 C                                       1.4282423
    26   6 C       27   6 C                                       1.3547282
    27   6 C       28   6 C                                       1.4318274
    25   6 C       29   7 N                                       1.3681583
    28   6 C       29   7 N                                       1.3758413
    28   6 C       30   6 C                                       1.3890561
    31   6 C       32   6 C                                       1.3968923
    32   6 C       33   6 C                                       1.3853598
    33   6 C       34   6 C                                       1.3852651
    34   6 C       35  16 S                                       1.7534834
    35  16 S       36   8 O                                       1.4340176
    35  16 S       37   8 O                                       1.6243970
    35  16 S       38   8 O                                       1.4322525
    34   6 C       39   6 C                                       1.3855810
    31   6 C       40   6 C                                       1.3972742
    39   6 C       40   6 C                                       1.3849251
    30   6 C       41   6 C                                       1.3890640
    41   6 C       42   6 C                                       1.4341696
    42   6 C       43   6 C                                       1.3533160
     2   6 C       44   6 C                                       1.3792996
    43   6 C       44   6 C                                       1.4313746
    41   6 C       45   7 N                                       1.3719981
    44   6 C       45   7 N                                       1.3728136
     2   6 C       46   1 H                                       1.0836526
     4   6 C       47   1 H                                       1.0782673
     5   6 C       48   1 H                                       1.0778796
    10   6 C       49   1 H                                       1.0837271
    11   6 C       50   1 H                                       1.0827724
    15   8 O       51   1 H                                       0.9649646
    17   6 C       52   1 H                                       1.0827549
    18   6 C       53   1 H                                       1.0837535
    20   6 C       54   1 H                                       1.0776992
    21   6 C       55   1 H                                       1.0779438
    26   6 C       56   1 H                                       1.0779651
    27   6 C       57   1 H                                       1.0777037
    32   6 C       58   1 H                                       1.0837365
    33   6 C       59   1 H                                       1.0827405
    37   8 O       60   1 H                                       0.9649589
    39   6 C       61   1 H                                       1.0827659
    40   6 C       62   1 H                                       1.0837438
    42   6 C       63   1 H                                       1.0778490
    43   6 C       64   1 H                                       1.0782426
    66   6 C       67   6 C                                       1.3793099
    67   6 C       68   6 C                                       1.4312901
    68   6 C       69   6 C                                       1.3533336
    69   6 C       70   6 C                                       1.4341220
    67   6 C       71   7 N                                       1.3725454
    70   6 C       71   7 N                                       1.3721217
    70   6 C       72   6 C                                       1.3887197
    73   6 C       74   6 C                                       1.3969329
    74   6 C       75   6 C                                       1.3852289
    75   6 C       76   6 C                                       1.3854342
    76   6 C       77  16 S                                       1.7532373
    77  16 S       78   8 O                                       1.4332245
    77  16 S       79   8 O                                       1.6240854
    77  16 S       80   8 O                                       1.4333348
    76   6 C       81   6 C                                       1.3854054
    73   6 C       82   6 C                                       1.3970675
    81   6 C       82   6 C                                       1.3850897
    72   6 C       83   6 C                                       1.3888778
    83   6 C       84   6 C                                       1.4318525
    84   6 C       85   6 C                                       1.3544070
    83   6 C       86   7 N                                       1.3757452
    85   6 C       87   6 C                                       1.4284739
    86   7 N       87   6 C                                       1.3684624
    87   6 C       88   6 C                                       1.3968312
    88   6 C       89   6 C                                       1.3968347
    89   6 C       90   6 C                                       1.4283155
    90   6 C       91   6 C                                       1.3545741
    91   6 C       92   6 C                                       1.4318802
    89   6 C       93   7 N                                       1.3682953
    92   6 C       93   7 N                                       1.3758874
    92   6 C       94   6 C                                       1.3888969
    95   6 C       96   6 C                                       1.3969052
    96   6 C       97   6 C                                       1.3853255
    97   6 C       98   6 C                                       1.3852741
    98   6 C       99  16 S                                       1.7536031
    99  16 S      100   8 O                                       1.4340600
    99  16 S      101   8 O                                       1.6243051
    99  16 S      102   8 O                                       1.4321156
    98   6 C      103   6 C                                       1.3855727
    95   6 C      104   6 C                                       1.3971963
   103   6 C      104   6 C                                       1.3849923
    94   6 C      105   6 C                                       1.3889839
   105   6 C      106   6 C                                       1.4341992
   106   6 C      107   6 C                                       1.3532237
    66   6 C      108   6 C                                       1.3791759
   107   6 C      108   6 C                                       1.4313367
   105   6 C      109   7 N                                       1.3720082
   108   6 C      109   7 N                                       1.3728172
    66   6 C      110   1 H                                       1.0836610
    68   6 C      111   1 H                                       1.0782645
    69   6 C      112   1 H                                       1.0778757
    74   6 C      113   1 H                                       1.0837330
    75   6 C      114   1 H                                       1.0827653
    79   8 O      115   1 H                                       0.9649474
    81   6 C      116   1 H                                       1.0827565
    82   6 C      117   1 H                                       1.0837420
    84   6 C      118   1 H                                       1.0776744
    85   6 C      119   1 H                                       1.0779230
    90   6 C      120   1 H                                       1.0779706
    91   6 C      121   1 H                                       1.0777009
    96   6 C      122   1 H                                       1.0837374
    97   6 C      123   1 H                                       1.0827420
   101   8 O      124   1 H                                       0.9649358 (min)
   103   6 C      125   1 H                                       1.0827771
   104   6 C      126   1 H                                       1.0837360
   106   6 C      127   1 H                                       1.0778404
   107   6 C      128   1 H                                       1.0782400
   129   6 C      130   6 C                                       1.2275104
   131   6 C      132   6 C                                       1.2229982
   133   6 C      134   6 C                                       1.2231402
   135   6 C      136   6 C                                       1.2272709
   137   6 C      138   6 C                                       1.2229048
   139   6 C      140   6 C                                       1.2227616
   142   6 C      143   6 C                                       1.3978152
   143   6 C      144   6 C                                       1.4281220
   144   6 C      145   6 C                                       1.3551395
   145   6 C      146   6 C                                       1.4313409
   143   6 C      147   7 N                                       1.3680851
   146   6 C      147   7 N                                       1.3758219
   146   6 C      148   6 C                                       1.3890164
   149   6 C      150   6 C                                       1.3969713
   150   6 C      151   6 C                                       1.3852591
   151   6 C      152   6 C                                       1.3852471
   152   6 C      153  16 S                                       1.7537387 (max)
   153  16 S      154   8 O                                       1.4338749
   153  16 S      155   8 O                                       1.6240510
   153  16 S      156   8 O                                       1.4320784
   152   6 C      157   6 C                                       1.3855561
   149   6 C      158   6 C                                       1.3971750
   157   6 C      158   6 C                                       1.3850101
   148   6 C      159   6 C                                       1.3889923
   159   6 C      160   6 C                                       1.4314217
   160   6 C      161   6 C                                       1.3550607
   159   6 C      162   7 N                                       1.3757957
   161   6 C      163   6 C                                       1.4281802
   162   7 N      163   6 C                                       1.3681713
   163   6 C      164   6 C                                       1.3974945
   164   6 C      165   6 C                                       1.3975201
   165   6 C      166   6 C                                       1.4281495
   166   6 C      167   6 C                                       1.3550812
   167   6 C      168   6 C                                       1.4314128
   165   6 C      169   7 N                                       1.3681753
   168   6 C      169   7 N                                       1.3757134
   168   6 C      170   6 C                                       1.3890736
   171   6 C      172   6 C                                       1.3970349
   172   6 C      173   6 C                                       1.3851553
   173   6 C      174   6 C                                       1.3852574
   174   6 C      175  16 S                                       1.7536807
   175  16 S      176   8 O                                       1.4339826
   175  16 S      177   8 O                                       1.6241645
   175  16 S      178   8 O                                       1.4322268
   174   6 C      179   6 C                                       1.3855302
   171   6 C      180   6 C                                       1.3971180
   179   6 C      180   6 C                                       1.3850866
   170   6 C      181   6 C                                       1.3889617
   181   6 C      182   6 C                                       1.4313306
   182   6 C      183   6 C                                       1.3551796
   142   6 C      184   6 C                                       1.3978534
   183   6 C      184   6 C                                       1.4280828
   181   6 C      185   7 N                                       1.3759056
   184   6 C      185   7 N                                       1.3679885
   144   6 C      186   1 H                                       1.0779660
   145   6 C      187   1 H                                       1.0777421
   150   6 C      188   1 H                                       1.0837304
   151   6 C      189   1 H                                       1.0827422
   155   8 O      190   1 H                                       0.9649962
   157   6 C      191   1 H                                       1.0827827
   158   6 C      192   1 H                                       1.0837365
   160   6 C      193   1 H                                       1.0777078
   161   6 C      194   1 H                                       1.0779679
   166   6 C      195   1 H                                       1.0779620
   167   6 C      196   1 H                                       1.0777172
   172   6 C      197   1 H                                       1.0837180
   173   6 C      198   1 H                                       1.0827202
   177   8 O      199   1 H                                       0.9649672
   179   6 C      200   1 H                                       1.0827810
   180   6 C      201   1 H                                       1.0837320
   182   6 C      202   1 H                                       1.0777367
   183   6 C      203   1 H                                       1.0779774

 * 6 distinct bonds (by element types)

   Z      Z             #   av. dist./Å        max./Å        min./Å
   1 H    6 C          50     1.0807011     1.0837535     1.0776744
   6 C    6 C         102     1.3854328     1.4341992     1.2227616
   6 C    7 N          24     1.3721361     1.3759056     1.3679885
   1 H    8 O           6     0.9649617     0.9649962     0.9649358
   6 C   16 S           6     1.7534938     1.7537387     1.7532194
   8 O   16 S          18     1.4968169     1.6243970     1.4320784


optimized geometry written to: xtbopt.xyz


           -------------------------------------------------
          | TOTAL ENERGY             -415.151467082834 Eh   |
          | GRADIENT NORM               0.000933414384 Eh/α |
          | HOMO-LUMO GAP               1.220212615278 eV   |
           -------------------------------------------------

------------------------------------------------------------------------
 * finished run on 2022/07/30 at 11:08:11.513     
------------------------------------------------------------------------
 total:
 * wall-time:     0 d,  0 h,  2 min, 25.132 sec
 *  cpu-time:     0 d,  0 h,  2 min, 24.452 sec
 * ratio c/w:     0.995 speedup
 SCF:
 * wall-time:     0 d,  0 h,  0 min,  9.035 sec
 *  cpu-time:     0 d,  0 h,  0 min,  8.991 sec
 * ratio c/w:     0.995 speedup
 ANC optimizer:
 * wall-time:     0 d,  0 h,  2 min, 15.874 sec
 *  cpu-time:     0 d,  0 h,  2 min, 15.243 sec
 * ratio c/w:     0.995 speedup

